   0.71144E+00   0.18782E-03   0.18782E-03   0.18782E-03   0.14006E-03   0.23254E-03   0.23254E-03   0.23253E-03   0.23253E-03   0.20460E-04
   0.14229E+01   0.83387E-03   0.83387E-03   0.83387E-03   0.61731E-03   0.10298E-02   0.10299E-02   0.10298E-02   0.10298E-02   0.90496E-04
   0.21343E+01   0.18115E-02   0.18115E-02   0.18115E-02   0.13110E-02   0.22205E-02   0.22205E-02   0.22205E-02   0.22205E-02   0.19462E-03
   0.28457E+01   0.33935E-02   0.33935E-02   0.33935E-02   0.24025E-02   0.41269E-02   0.41269E-02   0.41269E-02   0.41269E-02   0.36087E-03
   0.35572E+01   0.57884E-02   0.57884E-02   0.57884E-02   0.39734E-02   0.69536E-02   0.69536E-02   0.69535E-02   0.69535E-02   0.60869E-03
   0.42686E+01   0.84496E-02   0.84495E-02   0.84495E-02   0.55438E-02   0.99861E-02   0.99861E-02   0.99861E-02   0.99860E-02   0.87176E-03
   0.49801E+01   0.12378E-01   0.12378E-01   0.12378E-01   0.76854E-02   0.14338E-01   0.14338E-01   0.14338E-01   0.14338E-01   0.12474E-02
   0.56915E+01   0.19563E-01   0.19563E-01   0.19563E-01   0.11400E-01   0.22106E-01   0.22106E-01   0.22106E-01   0.22106E-01   0.19230E-02
   0.64029E+01   0.40636E-01   0.40636E-01   0.40636E-01   0.18041E-01   0.42041E-01   0.42040E-01   0.42040E-01   0.42040E-01   0.32148E-02
   0.71144E+01   0.61826E-01   0.61826E-01   0.61826E-01   0.17746E-01   0.57499E-01   0.57499E-01   0.57499E-01   0.57499E-01   0.32657E-02
   0.78258E+01   0.12417E+00   0.12417E+00   0.12417E+00   0.20500E-01   0.10489E+00   0.10473E+00   0.10472E+00   0.10475E+00   0.40242E-02
   0.85372E+01   0.63115E-01   0.63115E-01   0.63116E-01   0.10419E-01   0.51711E-01   0.51710E-01   0.51709E-01   0.51710E-01   0.20084E-02
   0.92487E+01   0.62402E-01   0.62402E-01   0.62402E-01   0.96213E-02   0.49293E-01   0.49293E-01   0.49293E-01   0.49293E-01   0.18014E-02
   0.99601E+01   0.58580E-01   0.58580E-01   0.58580E-01   0.86323E-02   0.43524E-01   0.43524E-01   0.43523E-01   0.43523E-01   0.16599E-02
   0.10672E+02   0.11043E+00   0.11042E+00   0.11042E+00   0.14881E-01   0.79010E-01   0.79011E-01   0.79010E-01   0.79010E-01   0.28982E-02
   0.11383E+02   0.10164E+00   0.10164E+00   0.10164E+00   0.12969E-01   0.70209E-01   0.70211E-01   0.70211E-01   0.70211E-01   0.28111E-02
   0.12094E+02   0.11324E+00   0.11324E+00   0.11324E+00   0.17749E-01   0.75630E-01   0.75628E-01   0.75628E-01   0.75628E-01   0.44871E-02
   0.12806E+02   0.15625E+00   0.15625E+00   0.15625E+00   0.22665E-01   0.96502E-01   0.96502E-01   0.96502E-01   0.96504E-01   0.53664E-02
   0.13517E+02   0.22912E+00   0.22912E+00   0.22912E+00   0.47793E-01   0.14649E+00   0.14651E+00   0.14650E+00   0.14651E+00   0.13284E-01
   0.14229E+02   0.51638E-01   0.51638E-01   0.51638E-01   0.16900E-01   0.38704E-01   0.38729E-01   0.38729E-01   0.38722E-01   0.49073E-02
   0.14940E+02   0.55002E-01   0.55002E-01   0.55002E-01   0.18725E-01   0.40357E-01   0.40342E-01   0.40342E-01   0.40345E-01   0.50550E-02
   0.15652E+02   0.13455E+00   0.13455E+00   0.13455E+00   0.47750E-01   0.96957E-01   0.96953E-01   0.96950E-01   0.96952E-01   0.12735E-01
   0.16363E+02   0.00000E+00   0.00000E+00   0.00000E+00   0.00000E+00   0.00000E+00   0.00000E+00   0.00000E+00   0.00000E+00   0.00000E+00
   0.17074E+02   0.78321E-02   0.78317E-02   0.78313E-02   0.33535E-03   0.81176E-02   0.81182E-02   0.81184E-02   0.81178E-02   0.22608E-03
   0.17786E+02   0.22030E-01   0.22029E-01   0.22029E-01   0.13620E-02   0.20652E-01   0.20652E-01   0.20653E-01   0.20653E-01   0.11390E-02
   0.18497E+02   0.31040E-01   0.31038E-01   0.31037E-01   0.17940E-02   0.26901E-01   0.26900E-01   0.26900E-01   0.26902E-01   0.18903E-02
   0.19209E+02   0.41781E-01   0.41779E-01   0.41777E-01   0.20721E-02   0.34296E-01   0.34300E-01   0.34301E-01   0.34299E-01   0.28482E-02
   0.19920E+02   0.51858E-01   0.51856E-01   0.51855E-01   0.21601E-02   0.40391E-01   0.40390E-01   0.40391E-01   0.40391E-01   0.38431E-02
   0.20632E+02   0.50630E-01   0.50628E-01   0.50626E-01   0.18352E-02   0.37271E-01   0.37280E-01   0.37281E-01   0.37279E-01   0.41871E-02
   0.21343E+02   0.52121E-01   0.52120E-01   0.52119E-01   0.21058E-02   0.35946E-01   0.35942E-01   0.35942E-01   0.35943E-01   0.50987E-02
   0.22055E+02   0.63268E-01   0.63264E-01   0.63262E-01   0.32503E-02   0.41201E-01   0.41196E-01   0.41197E-01   0.41196E-01   0.69615E-02
   0.22766E+02   0.93512E-01   0.93507E-01   0.93500E-01   0.20130E-01   0.77143E-01   0.76897E-01   0.77135E-01   0.76946E-01   0.20752E-01
   0.23477E+02   0.13060E+00   0.13066E+00   0.13074E+00   0.13387E-01   0.85700E-01   0.85674E-01   0.85654E-01   0.85677E-01   0.16258E-01
   0.24189E+02   0.84870E-01   0.84868E-01   0.84876E-01   0.14760E-01   0.44997E-01   0.44999E-01   0.45001E-01   0.44999E-01   0.89069E-02
   0.24900E+02   0.15862E+00   0.15861E+00   0.15862E+00   0.10699E+00   0.73593E-01   0.73427E-01   0.73437E-01   0.73429E-01   0.16704E-01
   0.25612E+02   0.36161E+00   0.36161E+00   0.36163E+00   0.35265E+00   0.20007E+00   0.20012E+00   0.20016E+00   0.20012E+00   0.55910E-01
   0.26323E+02   0.10770E+00   0.10769E+00   0.10770E+00   0.89152E-01   0.48198E-01   0.48193E-01   0.48190E-01   0.48193E-01   0.12774E-01
   0.27035E+02   0.19650E-01   0.19649E-01   0.19649E-01   0.45911E-01   0.29516E-01   0.29515E-01   0.29514E-01   0.29515E-01   0.27923E-02
   0.27746E+02   0.23910E+00   0.23909E+00   0.23908E+00   0.43544E+00   0.36651E+00   0.36648E+00   0.36644E+00   0.36647E+00   0.15267E-01
   0.28457E+02   0.46544E-02   0.46542E-02   0.46543E-02   0.71027E-04   0.77092E-03   0.77084E-03   0.77073E-03   0.77083E-03   0.21859E-04
   0.29169E+02   0.26750E-02   0.26748E-02   0.26750E-02   0.20321E-03   0.62789E-01   0.62789E-01   0.62786E-01   0.62788E-01   0.12238E-03
   0.29880E+02   0.52624E-01   0.52614E-01   0.52623E-01   0.38349E-02   0.22264E+00   0.22271E+00   0.22270E+00   0.22271E+00   0.34972E-02
   0.30592E+02   0.17516E+00   0.17508E+00   0.17515E+00   0.60918E-02   0.47802E+00   0.47845E+00   0.47884E+00   0.47850E+00   0.10947E-01
   0.31303E+02   0.74697E+00   0.74698E+00   0.74698E+00   0.66916E-02   0.70933E+00   0.70949E+00   0.70961E+00   0.70951E+00   0.89371E-02
   0.32015E+02   0.65668E-01   0.65664E-01   0.65669E-01   0.60917E-03   0.76962E-01   0.76956E-01   0.76962E-01   0.76958E-01   0.69444E-02
   0.32726E+02   0.70078E-01   0.70069E-01   0.70084E-01   0.13270E-02   0.60760E-01   0.60754E-01   0.60751E-01   0.60753E-01   0.17618E-02
   0.33437E+02   0.00000E+00   0.00000E+00   0.00000E+00   0.00000E+00   0.00000E+00   0.00000E+00   0.00000E+00   0.00000E+00   0.00000E+00
   0.34149E+02   0.00000E+00   0.00000E+00   0.00000E+00   0.00000E+00   0.00000E+00   0.00000E+00   0.00000E+00   0.00000E+00   0.00000E+00
   0.34860E+02   0.00000E+00   0.00000E+00   0.00000E+00   0.00000E+00   0.00000E+00   0.00000E+00   0.00000E+00   0.00000E+00   0.00000E+00
   0.35572E+02   0.00000E+00   0.00000E+00   0.00000E+00   0.00000E+00   0.00000E+00   0.00000E+00   0.00000E+00   0.00000E+00   0.00000E+00
   0.36283E+02   0.00000E+00   0.00000E+00   0.00000E+00   0.00000E+00   0.00000E+00   0.00000E+00   0.00000E+00   0.00000E+00   0.00000E+00
   0.36995E+02   0.00000E+00   0.00000E+00   0.00000E+00   0.00000E+00   0.00000E+00   0.00000E+00   0.00000E+00   0.00000E+00   0.00000E+00
   0.37706E+02   0.00000E+00   0.00000E+00   0.00000E+00   0.00000E+00   0.00000E+00   0.00000E+00   0.00000E+00   0.00000E+00   0.00000E+00
   0.38418E+02   0.00000E+00   0.00000E+00   0.00000E+00   0.00000E+00   0.00000E+00   0.00000E+00   0.00000E+00   0.00000E+00   0.00000E+00
   0.39129E+02   0.00000E+00   0.00000E+00   0.00000E+00   0.00000E+00   0.00000E+00   0.00000E+00   0.00000E+00   0.00000E+00   0.00000E+00
   0.39840E+02   0.12739E-01   0.12739E-01   0.12738E-01   0.32286E-03   0.62935E-01   0.62939E-01   0.62942E-01   0.62939E-01   0.75398E-01
   0.40552E+02   0.16472E-01   0.16474E-01   0.16473E-01   0.31606E-02   0.93085E-01   0.93091E-01   0.93096E-01   0.93091E-01   0.95090E-01
   0.41263E+02   0.65666E-02   0.65671E-02   0.65669E-02   0.22139E-02   0.46207E-01   0.46210E-01   0.46212E-01   0.46210E-01   0.38914E-01
   0.41975E+02   0.30659E-02   0.30662E-02   0.30661E-02   0.13261E-02   0.26785E-01   0.26787E-01   0.26788E-01   0.26787E-01   0.17681E-01
   0.42686E+02   0.16506E-02   0.16507E-02   0.16507E-02   0.77482E-03   0.18257E-01   0.18258E-01   0.18259E-01   0.18258E-01   0.87254E-02
   0.43398E+02   0.91706E-03   0.91712E-03   0.91710E-03   0.36261E-03   0.12265E-01   0.12266E-01   0.12267E-01   0.12266E-01   0.36081E-02
   0.44109E+02   0.31406E-03   0.31409E-03   0.31408E-03   0.59484E-04   0.49875E-02   0.49878E-02   0.49882E-02   0.49879E-02   0.53534E-03
   0.44820E+02   0.00000E+00   0.00000E+00   0.00000E+00   0.00000E+00   0.00000E+00   0.00000E+00   0.00000E+00   0.00000E+00   0.00000E+00
   0.45532E+02   0.00000E+00   0.00000E+00   0.00000E+00   0.00000E+00   0.00000E+00   0.00000E+00   0.00000E+00   0.00000E+00   0.00000E+00
   0.46243E+02   0.00000E+00   0.00000E+00   0.00000E+00   0.00000E+00   0.00000E+00   0.00000E+00   0.00000E+00   0.00000E+00   0.00000E+00
   0.46955E+02   0.00000E+00   0.00000E+00   0.00000E+00   0.00000E+00   0.00000E+00   0.00000E+00   0.00000E+00   0.00000E+00   0.00000E+00
   0.47666E+02   0.00000E+00   0.00000E+00   0.00000E+00   0.00000E+00   0.00000E+00   0.00000E+00   0.00000E+00   0.00000E+00   0.00000E+00
   0.48378E+02   0.00000E+00   0.00000E+00   0.00000E+00   0.00000E+00   0.00000E+00   0.00000E+00   0.00000E+00   0.00000E+00   0.00000E+00
   0.49089E+02   0.00000E+00   0.00000E+00   0.00000E+00   0.00000E+00   0.00000E+00   0.00000E+00   0.00000E+00   0.00000E+00   0.00000E+00
   0.49801E+02   0.00000E+00   0.00000E+00   0.00000E+00   0.00000E+00   0.00000E+00   0.00000E+00   0.00000E+00   0.00000E+00   0.00000E+00
   0.50512E+02   0.00000E+00   0.00000E+00   0.00000E+00   0.00000E+00   0.00000E+00   0.00000E+00   0.00000E+00   0.00000E+00   0.00000E+00
   0.51223E+02   0.00000E+00   0.00000E+00   0.00000E+00   0.00000E+00   0.00000E+00   0.00000E+00   0.00000E+00   0.00000E+00   0.00000E+00
   0.51935E+02   0.00000E+00   0.00000E+00   0.00000E+00   0.00000E+00   0.00000E+00   0.00000E+00   0.00000E+00   0.00000E+00   0.00000E+00
   0.52646E+02   0.00000E+00   0.00000E+00   0.00000E+00   0.00000E+00   0.00000E+00   0.00000E+00   0.00000E+00   0.00000E+00   0.00000E+00
   0.53358E+02   0.10716E-02   0.10715E-02   0.10715E-02   0.34307E-01   0.78121E-02   0.78046E-02   0.78020E-02   0.78051E-02   0.74421E+00
   0.54069E+02   0.21777E-03   0.21778E-03   0.21778E-03   0.63474E-02   0.96192E-02   0.96228E-02   0.96250E-02   0.96223E-02   0.22182E+00
   0.54781E+02   0.43402E-03   0.43408E-03   0.43407E-03   0.93507E-02   0.67402E-01   0.67420E-01   0.67433E-01   0.67419E-01   0.97802E+00
   0.55492E+02   0.00000E+00   0.00000E+00   0.00000E+00   0.00000E+00   0.00000E+00   0.00000E+00   0.00000E+00   0.00000E+00   0.00000E+00
   0.56203E+02   0.00000E+00   0.00000E+00   0.00000E+00   0.00000E+00   0.00000E+00   0.00000E+00   0.00000E+00   0.00000E+00   0.00000E+00
   0.56915E+02   0.00000E+00   0.00000E+00   0.00000E+00   0.00000E+00   0.00000E+00   0.00000E+00   0.00000E+00   0.00000E+00   0.00000E+00
   0.57626E+02   0.00000E+00   0.00000E+00   0.00000E+00   0.00000E+00   0.00000E+00   0.00000E+00   0.00000E+00   0.00000E+00   0.00000E+00
   0.58338E+02   0.00000E+00   0.00000E+00   0.00000E+00   0.00000E+00   0.00000E+00   0.00000E+00   0.00000E+00   0.00000E+00   0.00000E+00
   0.59049E+02   0.00000E+00   0.00000E+00   0.00000E+00   0.00000E+00   0.00000E+00   0.00000E+00   0.00000E+00   0.00000E+00   0.00000E+00
   0.59761E+02   0.00000E+00   0.00000E+00   0.00000E+00   0.00000E+00   0.00000E+00   0.00000E+00   0.00000E+00   0.00000E+00   0.00000E+00
   0.60472E+02   0.00000E+00   0.00000E+00   0.00000E+00   0.00000E+00   0.00000E+00   0.00000E+00   0.00000E+00   0.00000E+00   0.00000E+00
   0.61183E+02   0.00000E+00   0.00000E+00   0.00000E+00   0.00000E+00   0.00000E+00   0.00000E+00   0.00000E+00   0.00000E+00   0.00000E+00
   0.61895E+02   0.00000E+00   0.00000E+00   0.00000E+00   0.00000E+00   0.00000E+00   0.00000E+00   0.00000E+00   0.00000E+00   0.00000E+00
   0.62606E+02   0.00000E+00   0.00000E+00   0.00000E+00   0.00000E+00   0.00000E+00   0.00000E+00   0.00000E+00   0.00000E+00   0.00000E+00
   0.63318E+02   0.00000E+00   0.00000E+00   0.00000E+00   0.00000E+00   0.00000E+00   0.00000E+00   0.00000E+00   0.00000E+00   0.00000E+00
   0.64029E+02   0.16112E-01   0.16112E-01   0.16112E-01   0.16054E+01   0.15967E+00   0.16045E+00   0.16108E+00   0.16046E+00   0.31208E-01
   0.64741E+02   0.00000E+00   0.00000E+00   0.00000E+00   0.00000E+00   0.00000E+00   0.00000E+00   0.00000E+00   0.00000E+00   0.00000E+00
   0.65452E+02   0.00000E+00   0.00000E+00   0.00000E+00   0.00000E+00   0.00000E+00   0.00000E+00   0.00000E+00   0.00000E+00   0.00000E+00
   0.66164E+02   0.00000E+00   0.00000E+00   0.00000E+00   0.00000E+00   0.00000E+00   0.00000E+00   0.00000E+00   0.00000E+00   0.00000E+00
   0.66875E+02   0.00000E+00   0.00000E+00   0.00000E+00   0.00000E+00   0.00000E+00   0.00000E+00   0.00000E+00   0.00000E+00   0.00000E+00
   0.67586E+02   0.00000E+00   0.00000E+00   0.00000E+00   0.00000E+00   0.00000E+00   0.00000E+00   0.00000E+00   0.00000E+00   0.00000E+00
   0.68298E+02   0.00000E+00   0.00000E+00   0.00000E+00   0.00000E+00   0.00000E+00   0.00000E+00   0.00000E+00   0.00000E+00   0.00000E+00
   0.69009E+02   0.00000E+00   0.00000E+00   0.00000E+00   0.00000E+00   0.00000E+00   0.00000E+00   0.00000E+00   0.00000E+00   0.00000E+00
   0.69721E+02   0.00000E+00   0.00000E+00   0.00000E+00   0.00000E+00   0.00000E+00   0.00000E+00   0.00000E+00   0.00000E+00   0.00000E+00
   0.70432E+02   0.00000E+00   0.00000E+00   0.00000E+00   0.00000E+00   0.00000E+00   0.00000E+00   0.00000E+00   0.00000E+00   0.00000E+00
   0.71144E+02   0.00000E+00   0.00000E+00   0.00000E+00   0.00000E+00   0.00000E+00   0.00000E+00   0.00000E+00   0.00000E+00   0.00000E+00
