  72   72
1 1
     5.313585000051573     0.000036230273634    -0.000009992521649
     0.000036238377873     3.543075000168097     0.000096065149888
    -0.000009988497103     0.000096063426087     3.543065000115576
1 2
    -0.069090000000066    -0.000000043856190    -0.000000055079513
    -0.000000044253377    -0.001640189999843     0.000000183018631
    -0.000000053334668     0.000000182018468    -0.001640085999782
1 3
     0.000000000000000    -0.000000000000000    -0.000000000000000
     0.000000000000000    -0.000000000000000    -0.000000000000000
     0.000000000000000    -0.000000000000000    -0.000000000000000
1 4
     0.000000000000000    -0.000000000000000    -0.000000000000000
     0.000000000000000    -0.000000000000000    -0.000000000000000
     0.000000000000000    -0.000000000000000    -0.000000000000000
1 5
     0.000000000000000    -0.000000000000000    -0.000000000000000
     0.000000000000000    -0.000000000000000    -0.000000000000000
     0.000000000000000    -0.000000000000000    -0.000000000000000
1 6
     0.000000000000000    -0.000000000000000    -0.000000000000000
     0.000000000000000    -0.000000000000000    -0.000000000000000
     0.000000000000000    -0.000000000000000    -0.000000000000000
1 7
     0.000000000000000    -0.000000000000000    -0.000000000000000
     0.000000000000000    -0.000000000000000    -0.000000000000000
     0.000000000000000    -0.000000000000000    -0.000000000000000
1 8
     0.000000000000000    -0.000000000000000    -0.000000000000000
     0.000000000000000    -0.000000000000000    -0.000000000000000
     0.000000000000000    -0.000000000000000    -0.000000000000000
1 9
    -0.057021889737283     0.083069521124675     0.062362676784953
     0.042634293666406    -0.057017955331658    -0.020210565911951
    -0.020212151245234     0.062359135125372     0.119614478593335
1 10
    -0.057023862230636    -0.083070134943342     0.062362034850047
    -0.042635456335102    -0.057019044668122     0.020209484088998
    -0.020211054260566    -0.062358222894641     0.119616027425171
1 11
    -0.057022160265682    -0.083069278875670    -0.062361123214704
    -0.042636357499814    -0.057018144005157    -0.020210395085259
     0.020212145738427     0.062357627106488     0.119616472573772
1 12
    -0.057023987772564     0.083070765056344    -0.062363565150643
     0.042633242495752    -0.057019205995472     0.020209054908876
     0.020210648753395    -0.062359914876079     0.119614521404796
1 13
    -0.000000000000000     0.000000000000000    -0.000000000000000
    -0.000000000000000     0.000000000000000    -0.000000000000000
    -0.000000000000000     0.000000000000000    -0.000000000000000
1 14
    -0.000000000000000     0.000000000000000    -0.000000000000000
    -0.000000000000000     0.000000000000000    -0.000000000000000
    -0.000000000000000     0.000000000000000    -0.000000000000000
1 15
    -0.000000000000000     0.000000000000000    -0.000000000000000
    -0.000000000000000     0.000000000000000    -0.000000000000000
    -0.000000000000000     0.000000000000000    -0.000000000000000
1 16
    -0.000000000000000     0.000000000000000    -0.000000000000000
    -0.000000000000000     0.000000000000000    -0.000000000000000
    -0.000000000000000     0.000000000000000    -0.000000000000000
1 17
    -0.057021826962514     0.062361370849470     0.083070836806650
    -0.020212730410456     0.119615565171942     0.062358200459061
     0.042635972828651    -0.020210552481380    -0.057017020655037
1 18
    -0.057023631108309     0.062362122814916    -0.083071892354280
    -0.020211383424128     0.119615114001999    -0.062358738219721
    -0.042635277169809     0.020209447518111    -0.057018229345663
1 19
    -0.000000000000000    -0.000000000000000     0.000000000000000
    -0.000000000000000    -0.000000000000000     0.000000000000000
    -0.000000000000000    -0.000000000000000     0.000000000000000
1 20
    -0.000000000000000    -0.000000000000000     0.000000000000000
    -0.000000000000000    -0.000000000000000     0.000000000000000
    -0.000000000000000    -0.000000000000000     0.000000000000000
1 21
    -0.057023023039340    -0.062361879151445    -0.083072013192217
     0.020211416576744     0.119614885998519     0.062359061778959
    -0.042635278334590    -0.020209308501944    -0.057019178672848
1 22
    -0.057024868893925    -0.062362877186136     0.083073257644094
     0.020209869582878     0.119614434822679    -0.062359799541449
     0.042634071663452     0.020207891497463    -0.057020321327983
1 23
    -0.000000000000000    -0.000000000000000     0.000000000000000
    -0.000000000000000    -0.000000000000000     0.000000000000000
    -0.000000000000000    -0.000000000000000     0.000000000000000
1 24
    -0.000000000000000    -0.000000000000000     0.000000000000000
    -0.000000000000000    -0.000000000000000     0.000000000000000
    -0.000000000000000    -0.000000000000000     0.000000000000000
1 25
    -1.257704999993837     0.000004870310045    -0.000004755501707
     0.000004243207829     0.541801052747890    -0.370233845490696
     0.000001389302246    -0.370235345444495     0.541800052716560
1 26
    -1.257809999994078     0.000006121342866     0.000006258216470
     0.000004143054572     0.541811447273106     0.370238154538287
    -0.000000610702943     0.370239654568123     0.541810947288719
1 27
    -0.000000000000000    -0.000000000000000    -0.000000000000000
    -0.000000000000000    -0.000000000000000    -0.000000000000000
    -0.000000000000000    -0.000000000000000    -0.000000000000000
1 28
    -0.000000000000000    -0.000000000000000    -0.000000000000000
    -0.000000000000000    -0.000000000000000    -0.000000000000000
    -0.000000000000000    -0.000000000000000    -0.000000000000000
1 29
    -0.000000000000000    -0.000000000000000    -0.000000000000000
    -0.000000000000000    -0.000000000000000    -0.000000000000000
    -0.000000000000000    -0.000000000000000    -0.000000000000000
1 30
    -0.000000000000000    -0.000000000000000    -0.000000000000000
    -0.000000000000000    -0.000000000000000    -0.000000000000000
    -0.000000000000000    -0.000000000000000    -0.000000000000000
1 31
    -0.000000000000000    -0.000000000000000    -0.000000000000000
    -0.000000000000000    -0.000000000000000    -0.000000000000000
    -0.000000000000000    -0.000000000000000    -0.000000000000000
1 32
    -0.000000000000000    -0.000000000000000    -0.000000000000000
    -0.000000000000000    -0.000000000000000    -0.000000000000000
    -0.000000000000000    -0.000000000000000    -0.000000000000000
1 33
    -0.014469036227463    -0.031033020475414    -0.031033519729444
    -0.024392550255496    -0.013804060608505    -0.013266561259147
    -0.024394530167229    -0.013267018174626    -0.013805017525292
1 34
    -0.602839680046637     0.854008781443195     0.854006777246447
     0.552089800912898    -1.168835753592569    -0.811602685146076
     0.552084637889273    -0.811599370863599    -1.168831439286854
1 35
     0.000000000000000     0.000000000000000     0.000000000000000
     0.000000000000000     0.000000000000000     0.000000000000000
     0.000000000000000     0.000000000000000     0.000000000000000
1 36
     0.000000000000000     0.000000000000000     0.000000000000000
     0.000000000000000     0.000000000000000     0.000000000000000
     0.000000000000000     0.000000000000000     0.000000000000000
1 37
     0.000000000000000     0.000000000000000     0.000000000000000
     0.000000000000000     0.000000000000000     0.000000000000000
     0.000000000000000     0.000000000000000     0.000000000000000
1 38
     0.000000000000000     0.000000000000000     0.000000000000000
     0.000000000000000     0.000000000000000     0.000000000000000
     0.000000000000000     0.000000000000000     0.000000000000000
1 39
     0.000000000000000     0.000000000000000     0.000000000000000
     0.000000000000000     0.000000000000000     0.000000000000000
     0.000000000000000     0.000000000000000     0.000000000000000
1 40
     0.000000000000000     0.000000000000000     0.000000000000000
     0.000000000000000     0.000000000000000     0.000000000000000
     0.000000000000000     0.000000000000000     0.000000000000000
1 41
    -0.602786233839607     0.853944360458910    -0.853944891022928
     0.552028967183050    -1.168791792856197     0.811553361295307
    -0.552023362181642     0.811549629186401    -1.168789560769748
1 42
    -0.014468533850758    -0.031030019182606     0.031030518384295
    -0.024389991319335    -0.013802528551268     0.013265027902059
     0.024391469835887     0.013265981827370    -0.013803982476705
1 43
    -0.000000000000000    -0.000000000000000     0.000000000000000
    -0.000000000000000    -0.000000000000000     0.000000000000000
    -0.000000000000000    -0.000000000000000     0.000000000000000
1 44
    -0.000000000000000    -0.000000000000000     0.000000000000000
    -0.000000000000000    -0.000000000000000     0.000000000000000
    -0.000000000000000    -0.000000000000000     0.000000000000000
1 45
    -0.000000000000000    -0.000000000000000     0.000000000000000
    -0.000000000000000    -0.000000000000000     0.000000000000000
    -0.000000000000000    -0.000000000000000     0.000000000000000
1 46
    -0.000000000000000    -0.000000000000000     0.000000000000000
    -0.000000000000000    -0.000000000000000     0.000000000000000
    -0.000000000000000    -0.000000000000000     0.000000000000000
1 47
    -0.000000000000000    -0.000000000000000     0.000000000000000
    -0.000000000000000    -0.000000000000000     0.000000000000000
    -0.000000000000000    -0.000000000000000     0.000000000000000
1 48
    -0.000000000000000    -0.000000000000000     0.000000000000000
    -0.000000000000000    -0.000000000000000     0.000000000000000
    -0.000000000000000    -0.000000000000000     0.000000000000000
1 49
    -0.602803266193126    -0.853974139566509     0.853963609001200
    -0.552052699075059    -1.168810246390674     0.811570814819043
     0.552051303965435     0.811572046731763    -1.168808978316801
1 50
    -0.014470466148438     0.031030980817449    -0.031028981614323
     0.024390449749769    -0.013802439397485     0.013265938750431
    -0.024388471232068     0.013264484822839    -0.013802485470894
1 51
    -0.000000000000000     0.000000000000000    -0.000000000000000
    -0.000000000000000     0.000000000000000    -0.000000000000000
    -0.000000000000000     0.000000000000000    -0.000000000000000
1 52
    -0.000000000000000     0.000000000000000    -0.000000000000000
    -0.000000000000000     0.000000000000000    -0.000000000000000
    -0.000000000000000     0.000000000000000    -0.000000000000000
1 53
    -0.000000000000000     0.000000000000000    -0.000000000000000
    -0.000000000000000     0.000000000000000    -0.000000000000000
    -0.000000000000000     0.000000000000000    -0.000000000000000
1 54
    -0.000000000000000     0.000000000000000    -0.000000000000000
    -0.000000000000000     0.000000000000000    -0.000000000000000
    -0.000000000000000     0.000000000000000    -0.000000000000000
1 55
    -0.000000000000000     0.000000000000000    -0.000000000000000
    -0.000000000000000     0.000000000000000    -0.000000000000000
    -0.000000000000000     0.000000000000000    -0.000000000000000
1 56
    -0.000000000000000     0.000000000000000    -0.000000000000000
    -0.000000000000000     0.000000000000000    -0.000000000000000
    -0.000000000000000     0.000000000000000    -0.000000000000000
1 57
    -0.014471463772049     0.031033479524787     0.031031980270039
     0.024393008675923    -0.013803971443197    -0.013266972095275
     0.024391028770975    -0.013265515178891    -0.013803514530209
1 58
    -0.602845319975380    -0.854029218571814    -0.854018722769109
    -0.552104532997067    -1.168845707343415    -0.811613138874737
    -0.552102196099216    -0.811613953313737    -1.168842521736992
1 59
     0.000000000000000    -0.000000000000000    -0.000000000000000
     0.000000000000000    -0.000000000000000    -0.000000000000000
     0.000000000000000    -0.000000000000000    -0.000000000000000
1 60
     0.000000000000000    -0.000000000000000    -0.000000000000000
     0.000000000000000    -0.000000000000000    -0.000000000000000
     0.000000000000000    -0.000000000000000    -0.000000000000000
1 61
     0.000000000000000    -0.000000000000000    -0.000000000000000
     0.000000000000000    -0.000000000000000    -0.000000000000000
     0.000000000000000    -0.000000000000000    -0.000000000000000
1 62
     0.000000000000000    -0.000000000000000    -0.000000000000000
     0.000000000000000    -0.000000000000000    -0.000000000000000
     0.000000000000000    -0.000000000000000    -0.000000000000000
1 63
     0.000000000000000    -0.000000000000000    -0.000000000000000
     0.000000000000000    -0.000000000000000    -0.000000000000000
     0.000000000000000    -0.000000000000000    -0.000000000000000
1 64
     0.000000000000000    -0.000000000000000    -0.000000000000000
     0.000000000000000    -0.000000000000000    -0.000000000000000
     0.000000000000000    -0.000000000000000    -0.000000000000000
1 65
     0.049090532534309    -0.029275004416399    -0.029274971541163
     0.021905946985716    -0.036235450735396    -0.048574085829603
     0.021905928834138    -0.048574145189363    -0.036235360095789
1 66
    -0.000000000000000    -0.000000000000000     0.000000000000000
    -0.000000000000000    -0.000000000000000     0.000000000000000
    -0.000000000000000    -0.000000000000000     0.000000000000000
1 67
     0.049091530403645    -0.029275799690937     0.029275768015659
     0.021906244060380    -0.036235433377808     0.048573798283243
    -0.021906171165455     0.048573904810620    -0.036235339904519
1 68
    -0.000000000000000    -0.000000000000000     0.000000000000000
    -0.000000000000000    -0.000000000000000     0.000000000000000
    -0.000000000000000    -0.000000000000000     0.000000000000000
1 69
     0.049090719596838     0.029274850309122    -0.029274931983751
    -0.021905903013899    -0.036235399264871     0.048574214170294
     0.021906025904613     0.048574107636597    -0.036235492729955
1 70
    -0.000000000000000    -0.000000000000000     0.000000000000000
    -0.000000000000000    -0.000000000000000     0.000000000000000
    -0.000000000000000    -0.000000000000000     0.000000000000000
1 71
     0.049089367466414     0.029273795583487     0.029273878458086
    -0.021905455942006    -0.036235516625841    -0.048574601719734
    -0.021905574094912    -0.048574542363596    -0.036235557270564
1 72
    -0.000000000000000    -0.000000000000000     0.000000000000000
    -0.000000000000000    -0.000000000000000     0.000000000000000
    -0.000000000000000    -0.000000000000000     0.000000000000000
2 1
    -0.069090000000066    -0.000000043856190    -0.000000055079513
    -0.000000044253377    -0.001640189999843     0.000000183018631
    -0.000000053334668     0.000000182018468    -0.001640085999782
2 2
     5.313585000051573     0.000036230273634    -0.000009992521649
     0.000036238377873     3.543075000168097     0.000096065149888
    -0.000009988497103     0.000096063426087     3.543065000115576
2 3
     0.000000000000000    -0.000000000000000    -0.000000000000000
     0.000000000000000    -0.000000000000000    -0.000000000000000
     0.000000000000000    -0.000000000000000    -0.000000000000000
2 4
     0.000000000000000    -0.000000000000000    -0.000000000000000
     0.000000000000000    -0.000000000000000    -0.000000000000000
     0.000000000000000    -0.000000000000000    -0.000000000000000
2 5
     0.000000000000000    -0.000000000000000    -0.000000000000000
     0.000000000000000    -0.000000000000000    -0.000000000000000
     0.000000000000000    -0.000000000000000    -0.000000000000000
2 6
     0.000000000000000    -0.000000000000000    -0.000000000000000
     0.000000000000000    -0.000000000000000    -0.000000000000000
     0.000000000000000    -0.000000000000000    -0.000000000000000
2 7
     0.000000000000000    -0.000000000000000    -0.000000000000000
     0.000000000000000    -0.000000000000000    -0.000000000000000
     0.000000000000000    -0.000000000000000    -0.000000000000000
2 8
     0.000000000000000    -0.000000000000000    -0.000000000000000
     0.000000000000000    -0.000000000000000    -0.000000000000000
     0.000000000000000    -0.000000000000000    -0.000000000000000
2 9
    -0.057023862230636    -0.083070134943342     0.062362034850047
    -0.042635456335102    -0.057019044668122     0.020209484088998
    -0.020211054260566    -0.062358222894641     0.119616027425171
2 10
    -0.057021889737283     0.083069521124675     0.062362676784953
     0.042634293666406    -0.057017955331658    -0.020210565911951
    -0.020212151245234     0.062359135125372     0.119614478593335
2 11
    -0.057023987772564     0.083070765056344    -0.062363565150643
     0.042633242495752    -0.057019205995472     0.020209054908876
     0.020210648753395    -0.062359914876079     0.119614521404796
2 12
    -0.057022160265682    -0.083069278875670    -0.062361123214704
    -0.042636357499814    -0.057018144005157    -0.020210395085259
     0.020212145738427     0.062357627106488     0.119616472573772
2 13
    -0.000000000000000     0.000000000000000    -0.000000000000000
    -0.000000000000000     0.000000000000000    -0.000000000000000
    -0.000000000000000     0.000000000000000    -0.000000000000000
2 14
    -0.000000000000000     0.000000000000000    -0.000000000000000
    -0.000000000000000     0.000000000000000    -0.000000000000000
    -0.000000000000000     0.000000000000000    -0.000000000000000
2 15
    -0.000000000000000     0.000000000000000    -0.000000000000000
    -0.000000000000000     0.000000000000000    -0.000000000000000
    -0.000000000000000     0.000000000000000    -0.000000000000000
2 16
    -0.000000000000000     0.000000000000000    -0.000000000000000
    -0.000000000000000     0.000000000000000    -0.000000000000000
    -0.000000000000000     0.000000000000000    -0.000000000000000
2 17
    -0.057023631108309     0.062362122814916    -0.083071892354280
    -0.020211383424128     0.119615114001999    -0.062358738219721
    -0.042635277169809     0.020209447518111    -0.057018229345663
2 18
    -0.057021826962514     0.062361370849470     0.083070836806650
    -0.020212730410456     0.119615565171942     0.062358200459061
     0.042635972828651    -0.020210552481380    -0.057017020655037
2 19
    -0.000000000000000    -0.000000000000000     0.000000000000000
    -0.000000000000000    -0.000000000000000     0.000000000000000
    -0.000000000000000    -0.000000000000000     0.000000000000000
2 20
    -0.000000000000000    -0.000000000000000     0.000000000000000
    -0.000000000000000    -0.000000000000000     0.000000000000000
    -0.000000000000000    -0.000000000000000     0.000000000000000
2 21
    -0.057024868893925    -0.062362877186136     0.083073257644094
     0.020209869582878     0.119614434822679    -0.062359799541449
     0.042634071663452     0.020207891497463    -0.057020321327983
2 22
    -0.057023023039340    -0.062361879151445    -0.083072013192217
     0.020211416576744     0.119614885998519     0.062359061778959
    -0.042635278334590    -0.020209308501944    -0.057019178672848
2 23
    -0.000000000000000    -0.000000000000000     0.000000000000000
    -0.000000000000000    -0.000000000000000     0.000000000000000
    -0.000000000000000    -0.000000000000000     0.000000000000000
2 24
    -0.000000000000000    -0.000000000000000     0.000000000000000
    -0.000000000000000    -0.000000000000000     0.000000000000000
    -0.000000000000000    -0.000000000000000     0.000000000000000
2 25
    -1.257809999994078     0.000006121342866     0.000006258216470
     0.000004143054572     0.541811447273106     0.370238154538287
    -0.000000610702943     0.370239654568123     0.541810947288719
2 26
    -1.257704999993837     0.000004870310045    -0.000004755501707
     0.000004243207829     0.541801052747890    -0.370233845490696
     0.000001389302246    -0.370235345444495     0.541800052716560
2 27
    -0.000000000000000    -0.000000000000000    -0.000000000000000
    -0.000000000000000    -0.000000000000000    -0.000000000000000
    -0.000000000000000    -0.000000000000000    -0.000000000000000
2 28
    -0.000000000000000    -0.000000000000000    -0.000000000000000
    -0.000000000000000    -0.000000000000000    -0.000000000000000
    -0.000000000000000    -0.000000000000000    -0.000000000000000
2 29
    -0.000000000000000    -0.000000000000000    -0.000000000000000
    -0.000000000000000    -0.000000000000000    -0.000000000000000
    -0.000000000000000    -0.000000000000000    -0.000000000000000
2 30
    -0.000000000000000    -0.000000000000000    -0.000000000000000
    -0.000000000000000    -0.000000000000000    -0.000000000000000
    -0.000000000000000    -0.000000000000000    -0.000000000000000
2 31
    -0.000000000000000    -0.000000000000000    -0.000000000000000
    -0.000000000000000    -0.000000000000000    -0.000000000000000
    -0.000000000000000    -0.000000000000000    -0.000000000000000
2 32
    -0.000000000000000    -0.000000000000000    -0.000000000000000
    -0.000000000000000    -0.000000000000000    -0.000000000000000
    -0.000000000000000    -0.000000000000000    -0.000000000000000
2 33
    -0.602839680046637     0.854008781443195     0.854006777246447
     0.552089800912898    -1.168835753592569    -0.811602685146076
     0.552084637889273    -0.811599370863599    -1.168831439286854
2 34
    -0.014469036227463    -0.031033020475414    -0.031033519729444
    -0.024392550255496    -0.013804060608505    -0.013266561259147
    -0.024394530167229    -0.013267018174626    -0.013805017525292
2 35
     0.000000000000000     0.000000000000000     0.000000000000000
     0.000000000000000     0.000000000000000     0.000000000000000
     0.000000000000000     0.000000000000000     0.000000000000000
2 36
     0.000000000000000     0.000000000000000     0.000000000000000
     0.000000000000000     0.000000000000000     0.000000000000000
     0.000000000000000     0.000000000000000     0.000000000000000
2 37
     0.000000000000000     0.000000000000000     0.000000000000000
     0.000000000000000     0.000000000000000     0.000000000000000
     0.000000000000000     0.000000000000000     0.000000000000000
2 38
     0.000000000000000     0.000000000000000     0.000000000000000
     0.000000000000000     0.000000000000000     0.000000000000000
     0.000000000000000     0.000000000000000     0.000000000000000
2 39
     0.000000000000000     0.000000000000000     0.000000000000000
     0.000000000000000     0.000000000000000     0.000000000000000
     0.000000000000000     0.000000000000000     0.000000000000000
2 40
     0.000000000000000     0.000000000000000     0.000000000000000
     0.000000000000000     0.000000000000000     0.000000000000000
     0.000000000000000     0.000000000000000     0.000000000000000
2 41
    -0.014468533850758    -0.031030019182606     0.031030518384295
    -0.024389991319335    -0.013802528551268     0.013265027902059
     0.024391469835887     0.013265981827370    -0.013803982476705
2 42
    -0.602786233839607     0.853944360458910    -0.853944891022928
     0.552028967183050    -1.168791792856197     0.811553361295307
    -0.552023362181642     0.811549629186401    -1.168789560769748
2 43
    -0.000000000000000    -0.000000000000000     0.000000000000000
    -0.000000000000000    -0.000000000000000     0.000000000000000
    -0.000000000000000    -0.000000000000000     0.000000000000000
2 44
    -0.000000000000000    -0.000000000000000     0.000000000000000
    -0.000000000000000    -0.000000000000000     0.000000000000000
    -0.000000000000000    -0.000000000000000     0.000000000000000
2 45
    -0.000000000000000    -0.000000000000000     0.000000000000000
    -0.000000000000000    -0.000000000000000     0.000000000000000
    -0.000000000000000    -0.000000000000000     0.000000000000000
2 46
    -0.000000000000000    -0.000000000000000     0.000000000000000
    -0.000000000000000    -0.000000000000000     0.000000000000000
    -0.000000000000000    -0.000000000000000     0.000000000000000
2 47
    -0.000000000000000    -0.000000000000000     0.000000000000000
    -0.000000000000000    -0.000000000000000     0.000000000000000
    -0.000000000000000    -0.000000000000000     0.000000000000000
2 48
    -0.000000000000000    -0.000000000000000     0.000000000000000
    -0.000000000000000    -0.000000000000000     0.000000000000000
    -0.000000000000000    -0.000000000000000     0.000000000000000
2 49
    -0.014470466148438     0.031030980817449    -0.031028981614323
     0.024390449749769    -0.013802439397485     0.013265938750431
    -0.024388471232068     0.013264484822839    -0.013802485470894
2 50
    -0.602803266193126    -0.853974139566509     0.853963609001200
    -0.552052699075059    -1.168810246390674     0.811570814819043
     0.552051303965435     0.811572046731763    -1.168808978316801
2 51
    -0.000000000000000     0.000000000000000    -0.000000000000000
    -0.000000000000000     0.000000000000000    -0.000000000000000
    -0.000000000000000     0.000000000000000    -0.000000000000000
2 52
    -0.000000000000000     0.000000000000000    -0.000000000000000
    -0.000000000000000     0.000000000000000    -0.000000000000000
    -0.000000000000000     0.000000000000000    -0.000000000000000
2 53
    -0.000000000000000     0.000000000000000    -0.000000000000000
    -0.000000000000000     0.000000000000000    -0.000000000000000
    -0.000000000000000     0.000000000000000    -0.000000000000000
2 54
    -0.000000000000000     0.000000000000000    -0.000000000000000
    -0.000000000000000     0.000000000000000    -0.000000000000000
    -0.000000000000000     0.000000000000000    -0.000000000000000
2 55
    -0.000000000000000     0.000000000000000    -0.000000000000000
    -0.000000000000000     0.000000000000000    -0.000000000000000
    -0.000000000000000     0.000000000000000    -0.000000000000000
2 56
    -0.000000000000000     0.000000000000000    -0.000000000000000
    -0.000000000000000     0.000000000000000    -0.000000000000000
    -0.000000000000000     0.000000000000000    -0.000000000000000
2 57
    -0.602845319975380    -0.854029218571814    -0.854018722769109
    -0.552104532997067    -1.168845707343415    -0.811613138874737
    -0.552102196099216    -0.811613953313737    -1.168842521736992
2 58
    -0.014471463772049     0.031033479524787     0.031031980270039
     0.024393008675923    -0.013803971443197    -0.013266972095275
     0.024391028770975    -0.013265515178891    -0.013803514530209
2 59
     0.000000000000000    -0.000000000000000    -0.000000000000000
     0.000000000000000    -0.000000000000000    -0.000000000000000
     0.000000000000000    -0.000000000000000    -0.000000000000000
2 60
     0.000000000000000    -0.000000000000000    -0.000000000000000
     0.000000000000000    -0.000000000000000    -0.000000000000000
     0.000000000000000    -0.000000000000000    -0.000000000000000
2 61
     0.000000000000000    -0.000000000000000    -0.000000000000000
     0.000000000000000    -0.000000000000000    -0.000000000000000
     0.000000000000000    -0.000000000000000    -0.000000000000000
2 62
     0.000000000000000    -0.000000000000000    -0.000000000000000
     0.000000000000000    -0.000000000000000    -0.000000000000000
     0.000000000000000    -0.000000000000000    -0.000000000000000
2 63
     0.000000000000000    -0.000000000000000    -0.000000000000000
     0.000000000000000    -0.000000000000000    -0.000000000000000
     0.000000000000000    -0.000000000000000    -0.000000000000000
2 64
     0.000000000000000    -0.000000000000000    -0.000000000000000
     0.000000000000000    -0.000000000000000    -0.000000000000000
     0.000000000000000    -0.000000000000000    -0.000000000000000
2 65
    -0.000000000000000    -0.000000000000000     0.000000000000000
    -0.000000000000000    -0.000000000000000     0.000000000000000
    -0.000000000000000    -0.000000000000000     0.000000000000000
2 66
     0.049090532534309    -0.029275004416399    -0.029274971541163
     0.021905946985716    -0.036235450735396    -0.048574085829603
     0.021905928834138    -0.048574145189363    -0.036235360095789
2 67
    -0.000000000000000    -0.000000000000000     0.000000000000000
    -0.000000000000000    -0.000000000000000     0.000000000000000
    -0.000000000000000    -0.000000000000000     0.000000000000000
2 68
     0.049091530403645    -0.029275799690937     0.029275768015659
     0.021906244060380    -0.036235433377808     0.048573798283243
    -0.021906171165455     0.048573904810620    -0.036235339904519
2 69
    -0.000000000000000    -0.000000000000000     0.000000000000000
    -0.000000000000000    -0.000000000000000     0.000000000000000
    -0.000000000000000    -0.000000000000000     0.000000000000000
2 70
     0.049090719596838     0.029274850309122    -0.029274931983751
    -0.021905903013899    -0.036235399264871     0.048574214170294
     0.021906025904613     0.048574107636597    -0.036235492729955
2 71
    -0.000000000000000    -0.000000000000000     0.000000000000000
    -0.000000000000000    -0.000000000000000     0.000000000000000
    -0.000000000000000    -0.000000000000000     0.000000000000000
2 72
     0.049089367466414     0.029273795583487     0.029273878458086
    -0.021905455942006    -0.036235516625841    -0.048574601719734
    -0.021905574094912    -0.048574542363596    -0.036235557270564
3 1
     0.000000000000000    -0.000000000000000    -0.000000000000000
     0.000000000000000    -0.000000000000000    -0.000000000000000
     0.000000000000000    -0.000000000000000    -0.000000000000000
3 2
     0.000000000000000    -0.000000000000000    -0.000000000000000
     0.000000000000000    -0.000000000000000    -0.000000000000000