   0.92750E+00   0.14159E-03   0.14159E-03   0.14159E-03   0.10551E-03   0.70902E-04   0.70905E-04   0.70902E-04   0.70903E-04   0.15263E-04
   0.18550E+01   0.70672E-03   0.70670E-03   0.70670E-03   0.52213E-03   0.35231E-03   0.35233E-03   0.35231E-03   0.35232E-03   0.75670E-04
   0.27825E+01   0.15215E-02   0.15214E-02   0.15214E-02   0.10978E-02   0.74886E-03   0.74887E-03   0.74886E-03   0.74886E-03   0.15976E-03
   0.37100E+01   0.29386E-02   0.29385E-02   0.29385E-02   0.20693E-02   0.14253E-02   0.14253E-02   0.14253E-02   0.14253E-02   0.30117E-03
   0.46375E+01   0.47916E-02   0.47913E-02   0.47913E-02   0.32585E-02   0.22724E-02   0.22724E-02   0.22724E-02   0.22724E-02   0.47333E-03
   0.55650E+01   0.70152E-02   0.70147E-02   0.70147E-02   0.45385E-02   0.32357E-02   0.32357E-02   0.32357E-02   0.32357E-02   0.66404E-03
   0.64925E+01   0.10952E-01   0.10951E-01   0.10951E-01   0.66611E-02   0.48735E-02   0.48735E-02   0.48735E-02   0.48735E-02   0.97728E-03
   0.74200E+01   0.16298E-01   0.16296E-01   0.16296E-01   0.91882E-02   0.69360E-02   0.69360E-02   0.69360E-02   0.69361E-02   0.13505E-02
   0.83475E+01   0.34088E-01   0.33960E-01   0.33986E-01   0.12204E-01   0.12020E-01   0.12019E-01   0.12020E-01   0.12020E-01   0.18042E-02
   0.92750E+01   0.99189E-01   0.99000E-01   0.99037E-01   0.17232E-01   0.27784E-01   0.27779E-01   0.27783E-01   0.27783E-01   0.25993E-02
   0.10203E+02   0.18473E+00   0.18468E+00   0.18468E+00   0.26669E-01   0.49132E-01   0.49116E-01   0.49130E-01   0.49126E-01   0.43287E-02
   0.11130E+02   0.10672E+00   0.10686E+00   0.10683E+00   0.13137E-01   0.25686E-01   0.25692E-01   0.25687E-01   0.25700E-01   0.19569E-02
   0.12058E+02   0.86458E-01   0.86431E-01   0.86430E-01   0.10208E-01   0.18625E-01   0.18626E-01   0.18626E-01   0.18629E-01   0.13919E-02
   0.12985E+02   0.13333E+00   0.13320E+00   0.13321E+00   0.11808E-01   0.24911E-01   0.24910E-01   0.24908E-01   0.24914E-01   0.17265E-02
   0.13913E+02   0.20490E+00   0.20331E+00   0.20343E+00   0.14373E-01   0.33464E-01   0.33496E-01   0.33437E-01   0.33472E-01   0.29209E-02
   0.14840E+02   0.14768E+00   0.14696E+00   0.14699E+00   0.16578E-01   0.22095E-01   0.22086E-01   0.22085E-01   0.22083E-01   0.34844E-02
   0.15768E+02   0.28066E+00   0.28151E+00   0.28135E+00   0.43579E-01   0.39429E-01   0.39421E-01   0.39443E-01   0.39440E-01   0.95021E-02
   0.16695E+02   0.10502E+00   0.10505E+00   0.10504E+00   0.21664E-01   0.17334E-01   0.17337E-01   0.17337E-01   0.17337E-01   0.60094E-02
   0.17623E+02   0.16275E+00   0.16275E+00   0.16274E+00   0.23144E-01   0.21545E-01   0.21549E-01   0.21549E-01   0.21549E-01   0.68807E-02
   0.18550E+02   0.95802E-01   0.97061E-01   0.97041E-01   0.15624E-01   0.11009E-01   0.10999E-01   0.11008E-01   0.10998E-01   0.84988E-02
   0.19478E+02   0.00000E+00   0.00000E+00   0.00000E+00   0.00000E+00   0.00000E+00   0.00000E+00   0.00000E+00   0.00000E+00   0.00000E+00
   0.20405E+02   0.00000E+00   0.00000E+00   0.00000E+00   0.00000E+00   0.00000E+00   0.00000E+00   0.00000E+00   0.00000E+00   0.00000E+00
   0.21333E+02   0.00000E+00   0.00000E+00   0.00000E+00   0.00000E+00   0.00000E+00   0.00000E+00   0.00000E+00   0.00000E+00   0.00000E+00
   0.22260E+02   0.00000E+00   0.00000E+00   0.00000E+00   0.00000E+00   0.00000E+00   0.00000E+00   0.00000E+00   0.00000E+00   0.00000E+00
   0.23188E+02   0.00000E+00   0.00000E+00   0.00000E+00   0.00000E+00   0.00000E+00   0.00000E+00   0.00000E+00   0.00000E+00   0.00000E+00
   0.24115E+02   0.00000E+00   0.00000E+00   0.00000E+00   0.00000E+00   0.00000E+00   0.00000E+00   0.00000E+00   0.00000E+00   0.00000E+00
   0.25043E+02   0.78431E+00   0.78210E+00   0.78257E+00   0.11727E+00   0.12111E+00   0.12108E+00   0.12110E+00   0.12109E+00   0.10778E-02
   0.25970E+02   0.33065E-01   0.33058E-01   0.33057E-01   0.12733E-01   0.21076E-02   0.21071E-02   0.21073E-02   0.21073E-02   0.13733E-03
   0.26898E+02   0.38393E-01   0.38416E-01   0.38403E-01   0.14223E-01   0.35680E-02   0.35676E-02   0.35674E-02   0.35677E-02   0.66164E-03
   0.27825E+02   0.82591E-01   0.82605E-01   0.82596E-01   0.21231E-01   0.98337E-02   0.98330E-02   0.98326E-02   0.98332E-02   0.30094E-02
   0.28753E+02   0.60687E-01   0.60454E-01   0.60504E-01   0.20647E-01   0.74109E-02   0.74099E-02   0.74097E-02   0.74101E-02   0.48759E-02
   0.29680E+02   0.34982E-01   0.34901E-01   0.34913E-01   0.12263E-01   0.41326E-02   0.41313E-02   0.41315E-02   0.41317E-02   0.39076E-02
   0.30608E+02   0.87077E-02   0.86827E-02   0.86873E-02   0.43886E-02   0.11651E-02   0.11644E-02   0.11647E-02   0.11646E-02   0.14609E-02
   0.31535E+02   0.17328E-02   0.17262E-02   0.17268E-02   0.17538E-02   0.44299E-03   0.44109E-03   0.44109E-03   0.44172E-03   0.59044E-03
   0.32463E+02   0.59027E-01   0.59184E-01   0.59159E-01   0.26166E+00   0.69286E-01   0.69194E-01   0.69230E-01   0.69226E-01   0.96123E-01
   0.33390E+02   0.81529E-01   0.82037E-01   0.81930E-01   0.19444E+00   0.61399E-01   0.61366E-01   0.61394E-01   0.61381E-01   0.10128E+00
   0.34318E+02   0.72102E-01   0.71062E-01   0.71338E-01   0.11285E+00   0.41497E-01   0.41556E-01   0.41517E-01   0.41529E-01   0.79134E-01
   0.35245E+02   0.15605E-01   0.15507E-01   0.15528E-01   0.31775E-01   0.94442E-02   0.94511E-02   0.94469E-02   0.94484E-02   0.14473E-01
   0.36173E+02   0.27963E-01   0.27880E-01   0.27895E-01   0.68927E-01   0.19748E-01   0.19757E-01   0.19751E-01   0.19754E-01   0.18893E-01
   0.37100E+02   0.55989E-01   0.56057E-01   0.56059E-01   0.13568E+00   0.41070E-01   0.41105E-01   0.41082E-01   0.41095E-01   0.21006E-01
   0.38028E+02   0.18951E-01   0.18866E-01   0.18887E-01   0.42132E-01   0.13461E-01   0.13467E-01   0.13462E-01   0.13465E-01   0.41775E-02
   0.38955E+02   0.36302E-04   0.30244E-04   0.31635E-04   0.72980E-04   0.22823E-04   0.22833E-04   0.22824E-04   0.22829E-04   0.27658E-05
   0.39883E+02   0.57472E-02   0.40115E-02   0.39899E-02   0.97956E-05   0.10854E-01   0.10858E-01   0.10847E-01   0.10859E-01   0.19456E-04
   0.40810E+02   0.51025E-01   0.50990E-01   0.50997E-01   0.44932E-02   0.14363E+00   0.14358E+00   0.14339E+00   0.14355E+00   0.49158E-02
   0.41738E+02   0.72697E-01   0.73012E-01   0.73029E-01   0.56032E-02   0.25444E+00   0.25475E+00   0.25442E+00   0.25480E+00   0.12396E-01
   0.42665E+02   0.42743E-01   0.42730E-01   0.42718E-01   0.49426E-02   0.18451E+00   0.18516E+00   0.18528E+00   0.18460E+00   0.10050E-01
   0.43593E+02   0.10012E-01   0.10074E-01   0.10081E-01   0.14164E-02   0.52490E-01   0.52589E-01   0.52522E-01   0.52534E-01   0.13686E-02
   0.44520E+02   0.44288E-01   0.43922E-01   0.43939E-01   0.25689E-02   0.12670E+00   0.12658E+00   0.12664E+00   0.12660E+00   0.19881E-01
   0.45448E+02   0.57391E-01   0.57932E-01   0.57927E-01   0.90334E-02   0.26644E+00   0.26594E+00   0.26604E+00   0.26614E+00   0.17641E+00
   0.46375E+02   0.19597E-01   0.19742E-01   0.19745E-01   0.94837E-02   0.13972E+00   0.13964E+00   0.13975E+00   0.13974E+00   0.26786E+00
   0.47303E+02   0.98589E-02   0.99251E-02   0.99257E-02   0.96694E-02   0.19406E+00   0.19451E+00   0.19424E+00   0.19464E+00   0.19645E+00
   0.48230E+02   0.50032E-02   0.50343E-02   0.50350E-02   0.84552E-02   0.98058E-01   0.97966E-01   0.98098E-01   0.97987E-01   0.83329E-01
   0.49158E+02   0.47993E-02   0.48252E-02   0.48264E-02   0.23432E-01   0.70769E-01   0.70735E-01   0.70796E-01   0.70745E-01   0.15181E+00
   0.50085E+02   0.18956E-02   0.19022E-02   0.19027E-02   0.14887E-01   0.21310E-01   0.21313E-01   0.21317E-01   0.21312E-01   0.82436E-01
   0.51013E+02   0.91150E-03   0.91406E-03   0.91424E-03   0.11307E-01   0.12916E-01   0.12919E-01   0.12919E-01   0.12919E-01   0.58044E-01
   0.51940E+02   0.41168E-03   0.41283E-03   0.41290E-03   0.80490E-02   0.78650E-02   0.78684E-02   0.78666E-02   0.78674E-02   0.39212E-01
   0.52868E+02   0.55783E-02   0.55637E-02   0.55648E-02   0.19069E+00   0.80283E-01   0.80299E-01   0.80297E-01   0.80303E-01   0.12001E+01
   0.53795E+02   0.00000E+00   0.00000E+00   0.00000E+00   0.00000E+00   0.00000E+00   0.00000E+00   0.00000E+00   0.00000E+00   0.00000E+00
   0.54723E+02   0.00000E+00   0.00000E+00   0.00000E+00   0.00000E+00   0.00000E+00   0.00000E+00   0.00000E+00   0.00000E+00   0.00000E+00
   0.55650E+02   0.00000E+00   0.00000E+00   0.00000E+00   0.00000E+00   0.00000E+00   0.00000E+00   0.00000E+00   0.00000E+00   0.00000E+00
   0.56578E+02   0.00000E+00   0.00000E+00   0.00000E+00   0.00000E+00   0.00000E+00   0.00000E+00   0.00000E+00   0.00000E+00   0.00000E+00
   0.57505E+02   0.00000E+00   0.00000E+00   0.00000E+00   0.00000E+00   0.00000E+00   0.00000E+00   0.00000E+00   0.00000E+00   0.00000E+00
   0.58433E+02   0.00000E+00   0.00000E+00   0.00000E+00   0.00000E+00   0.00000E+00   0.00000E+00   0.00000E+00   0.00000E+00   0.00000E+00
   0.59360E+02   0.00000E+00   0.00000E+00   0.00000E+00   0.00000E+00   0.00000E+00   0.00000E+00   0.00000E+00   0.00000E+00   0.00000E+00
   0.60288E+02   0.00000E+00   0.00000E+00   0.00000E+00   0.00000E+00   0.00000E+00   0.00000E+00   0.00000E+00   0.00000E+00   0.00000E+00
   0.61215E+02   0.00000E+00   0.00000E+00   0.00000E+00   0.00000E+00   0.00000E+00   0.00000E+00   0.00000E+00   0.00000E+00   0.00000E+00
   0.62143E+02   0.00000E+00   0.00000E+00   0.00000E+00   0.00000E+00   0.00000E+00   0.00000E+00   0.00000E+00   0.00000E+00   0.00000E+00
   0.63070E+02   0.00000E+00   0.00000E+00   0.00000E+00   0.00000E+00   0.00000E+00   0.00000E+00   0.00000E+00   0.00000E+00   0.00000E+00
   0.63998E+02   0.00000E+00   0.00000E+00   0.00000E+00   0.00000E+00   0.00000E+00   0.00000E+00   0.00000E+00   0.00000E+00   0.00000E+00
   0.64925E+02   0.00000E+00   0.00000E+00   0.00000E+00   0.00000E+00   0.00000E+00   0.00000E+00   0.00000E+00   0.00000E+00   0.00000E+00
   0.65853E+02   0.00000E+00   0.00000E+00   0.00000E+00   0.00000E+00   0.00000E+00   0.00000E+00   0.00000E+00   0.00000E+00   0.00000E+00
   0.66780E+02   0.00000E+00   0.00000E+00   0.00000E+00   0.00000E+00   0.00000E+00   0.00000E+00   0.00000E+00   0.00000E+00   0.00000E+00
   0.67708E+02   0.00000E+00   0.00000E+00   0.00000E+00   0.00000E+00   0.00000E+00   0.00000E+00   0.00000E+00   0.00000E+00   0.00000E+00
   0.68635E+02   0.00000E+00   0.00000E+00   0.00000E+00   0.00000E+00   0.00000E+00   0.00000E+00   0.00000E+00   0.00000E+00   0.00000E+00
   0.69563E+02   0.00000E+00   0.00000E+00   0.00000E+00   0.00000E+00   0.00000E+00   0.00000E+00   0.00000E+00   0.00000E+00   0.00000E+00
   0.70490E+02   0.00000E+00   0.00000E+00   0.00000E+00   0.00000E+00   0.00000E+00   0.00000E+00   0.00000E+00   0.00000E+00   0.00000E+00
   0.71418E+02   0.00000E+00   0.00000E+00   0.00000E+00   0.00000E+00   0.00000E+00   0.00000E+00   0.00000E+00   0.00000E+00   0.00000E+00
   0.72345E+02   0.17139E-03   0.17154E-03   0.17159E-03   0.19899E-06   0.96085E-02   0.96136E-02   0.96089E-02   0.96106E-02   0.24557E-03
   0.73273E+02   0.13711E-02   0.13743E-02   0.13739E-02   0.17086E-03   0.12852E+00   0.12859E+00   0.12853E+00   0.12855E+00   0.45819E-01
   0.74200E+02   0.19640E-04   0.12918E-04   0.13278E-04   0.11315E-05   0.28232E-02   0.28248E-02   0.28233E-02   0.28238E-02   0.13227E-02
   0.75128E+02   0.00000E+00   0.00000E+00   0.00000E+00   0.00000E+00   0.00000E+00   0.00000E+00   0.00000E+00   0.00000E+00   0.00000E+00
   0.76055E+02   0.00000E+00   0.00000E+00   0.00000E+00   0.00000E+00   0.00000E+00   0.00000E+00   0.00000E+00   0.00000E+00   0.00000E+00
   0.76983E+02   0.00000E+00   0.00000E+00   0.00000E+00   0.00000E+00   0.00000E+00   0.00000E+00   0.00000E+00   0.00000E+00   0.00000E+00
   0.77910E+02   0.00000E+00   0.00000E+00   0.00000E+00   0.00000E+00   0.00000E+00   0.00000E+00   0.00000E+00   0.00000E+00   0.00000E+00
   0.78838E+02   0.00000E+00   0.00000E+00   0.00000E+00   0.00000E+00   0.00000E+00   0.00000E+00   0.00000E+00   0.00000E+00   0.00000E+00
   0.79765E+02   0.00000E+00   0.00000E+00   0.00000E+00   0.00000E+00   0.00000E+00   0.00000E+00   0.00000E+00   0.00000E+00   0.00000E+00
   0.80693E+02   0.00000E+00   0.00000E+00   0.00000E+00   0.00000E+00   0.00000E+00   0.00000E+00   0.00000E+00   0.00000E+00   0.00000E+00
   0.81620E+02   0.00000E+00   0.00000E+00   0.00000E+00   0.00000E+00   0.00000E+00   0.00000E+00   0.00000E+00   0.00000E+00   0.00000E+00
   0.82548E+02   0.00000E+00   0.00000E+00   0.00000E+00   0.00000E+00   0.00000E+00   0.00000E+00   0.00000E+00   0.00000E+00   0.00000E+00
   0.83475E+02   0.92789E-02   0.92820E-02   0.92853E-02   0.12549E+01   0.33630E+00   0.33717E+00   0.33643E+00   0.33669E+00   0.12061E-01
   0.84403E+02   0.00000E+00   0.00000E+00   0.00000E+00   0.00000E+00   0.00000E+00   0.00000E+00   0.00000E+00   0.00000E+00   0.00000E+00
   0.85330E+02   0.00000E+00   0.00000E+00   0.00000E+00   0.00000E+00   0.00000E+00   0.00000E+00   0.00000E+00   0.00000E+00   0.00000E+00
   0.86258E+02   0.00000E+00   0.00000E+00   0.00000E+00   0.00000E+00   0.00000E+00   0.00000E+00   0.00000E+00   0.00000E+00   0.00000E+00
   0.87185E+02   0.00000E+00   0.00000E+00   0.00000E+00   0.00000E+00   0.00000E+00   0.00000E+00   0.00000E+00   0.00000E+00   0.00000E+00
   0.88113E+02   0.00000E+00   0.00000E+00   0.00000E+00   0.00000E+00   0.00000E+00   0.00000E+00   0.00000E+00   0.00000E+00   0.00000E+00
   0.89040E+02   0.00000E+00   0.00000E+00   0.00000E+00   0.00000E+00   0.00000E+00   0.00000E+00   0.00000E+00   0.00000E+00   0.00000E+00
   0.89968E+02   0.00000E+00   0.00000E+00   0.00000E+00   0.00000E+00   0.00000E+00   0.00000E+00   0.00000E+00   0.00000E+00   0.00000E+00
   0.90895E+02   0.00000E+00   0.00000E+00   0.00000E+00   0.00000E+00   0.00000E+00   0.00000E+00   0.00000E+00   0.00000E+00   0.00000E+00
   0.91823E+02   0.00000E+00   0.00000E+00   0.00000E+00   0.00000E+00   0.00000E+00   0.00000E+00   0.00000E+00   0.00000E+00   0.00000E+00
   0.92750E+02   0.00000E+00   0.00000E+00   0.00000E+00   0.00000E+00   0.00000E+00   0.00000E+00   0.00000E+00   0.00000E+00   0.00000E+00
