  429

    1
0.0000000000e+00 0.0000000000e+00 0.0000000000e+00
0.0000000000e+00 0.0000000000e+00 0.0000000000e+00
     1      1      1
 1  1  1     0.0000000000e+00
 1  1  2     0.0000000000e+00
 1  1  3     0.0000000000e+00
 1  2  1     0.0000000000e+00
 1  2  2     0.0000000000e+00
 1  2  3     0.0000000000e+00
 1  3  1     0.0000000000e+00
 1  3  2     0.0000000000e+00
 1  3  3     0.0000000000e+00
 2  1  1     0.0000000000e+00
 2  1  2     0.0000000000e+00
 2  1  3     0.0000000000e+00
 2  2  1     0.0000000000e+00
 2  2  2     0.0000000000e+00
 2  2  3     0.0000000000e+00
 2  3  1     0.0000000000e+00
 2  3  2     0.0000000000e+00
 2  3  3     0.0000000000e+00
 3  1  1     0.0000000000e+00
 3  1  2     0.0000000000e+00
 3  1  3     0.0000000000e+00
 3  2  1     0.0000000000e+00
 3  2  2     0.0000000000e+00
 3  2  3     0.0000000000e+00
 3  3  1     0.0000000000e+00
 3  3  2     0.0000000000e+00
 3  3  3     0.0000000000e+00

    2
0.0000000000e+00 0.0000000000e+00 0.0000000000e+00
0.0000000000e+00 0.0000000000e+00 0.0000000000e+00
     1      1      3
 1  1  1     2.0869233537e-02
 1  1  2    -3.9056420412e-02
 1  1  3     3.6878712995e-03
 1  2  1    -3.8800424674e-02
 1  2  2    -7.7639588342e-03
 1  2  3     1.4553445388e-02
 1  3  1     3.7046918494e-02
 1  3  2     2.7738456777e-02
 1  3  3     3.2236573065e-02
 2  1  1    -3.8800424674e-02
 2  1  2    -7.7639588342e-03
 2  1  3     1.4553445388e-02
 2  2  1     2.0007079222e-02
 2  2  2     4.6573241577e-02
 2  2  3    -1.8764696612e-02
 2  3  1    -7.9040524223e-04
 2  3  2     7.9460864438e-02
 2  3  3    -6.8941533918e-03
 3  1  1     3.7046918494e-02
 3  1  2     2.7738456777e-02
 3  1  3     3.2236573065e-02
 3  2  1    -7.9040524223e-04
 3  2  2     7.9460864438e-02
 3  2  3    -6.8941533918e-03
 3  3  1    -5.0763170616e-03
 3  3  2    -1.0140574906e-01
 3  3  3    -6.7762635780e-17

    3
0.0000000000e+00 0.0000000000e+00 0.0000000000e+00
0.0000000000e+00 0.0000000000e+00 0.0000000000e+00
     1      1      4
 1  1  1    -7.9976581831e+00
 1  1  2     0.0000000000e+00
 1  1  3     0.0000000000e+00
 1  2  1     0.0000000000e+00
 1  2  2     1.8252225370e-01
 1  2  3     3.0697056977e-01
 1  3  1     2.5097639146e-03
 1  3  2     3.5729522784e-01
 1  3  3     1.7843146392e-01
 2  1  1     0.0000000000e+00
 2  1  2     1.8252225370e-01
 2  1  3     3.0697056977e-01
 2  2  1     5.5750453473e-01
 2  2  2    -2.4602030358e-03
 2  2  3    -2.5046244545e-03
 2  3  1    -1.2425239994e-01
 2  3  2     0.0000000000e+00
 2  3  3     0.0000000000e+00
 3  1  1     2.5097639146e-03
 3  1  2     3.5729522784e-01
 3  1  3     1.7843146392e-01
 3  2  1    -1.2425239994e-01
 3  2  2     0.0000000000e+00
 3  2  3     0.0000000000e+00
 3  3  1     5.8298999066e-01
 3  3  2    -4.0657581468e-16
 3  3  3    -2.4383469305e-03

    4
0.0000000000e+00 0.0000000000e+00 0.0000000000e+00
0.0000000000e+00 0.0000000000e+00 0.0000000000e+00
     1      1      6
 1  1  1    -2.3827007685e+00
 1  1  2     4.0158441201e+00
 1  1  3    -3.9965118515e+00
 1  2  1     3.9393398389e+00
 1  2  2    -3.4676397181e+00
 1  2  3    -1.7312070144e-01
 1  3  1    -3.8986708286e+00
 1  3  2    -1.7812634417e-01
 1  3  3    -3.4726293071e+00
 2  1  1     3.9393398389e+00
 2  1  2    -3.4676397181e+00
 2  1  3    -1.7312070144e-01
 2  2  1    -3.6615596725e+00
 2  2  2     2.2491075201e+00
 2  2  3    -2.8829174504e+00
 2  3  1     4.7686090028e-02
 2  3  2    -3.0396141899e+00
 2  3  3     3.1027896917e+00
 3  1  1    -3.8986708286e+00
 3  1  2    -1.7812634417e-01
 3  1  3    -3.4726293071e+00
 3  2  1     4.7686090028e-02
 3  2  2    -3.0396141899e+00
 3  2  3     3.1027896917e+00
 3  3  1    -3.6492728772e+00
 3  3  2     2.8920212065e+00
 3  3  3    -2.3362820246e+00

    5
0.0000000000e+00 0.0000000000e+00 0.0000000000e+00
0.0000000000e+00 0.0000000000e+00 0.0000000000e+00
     1      1      7
 1  1  1    -2.3960127288e+00
 1  1  2    -3.9767936728e+00
 1  1  3     4.0145953154e+00
 1  2  1    -3.9005493714e+00
 1  2  2    -3.4500191910e+00
 1  2  3    -1.4841736613e-01
 1  3  1     3.8809004347e+00
 1  3  2    -2.0691844976e-01
 1  3  3    -3.4633867709e+00
 2  1  1    -3.9005493714e+00
 2  1  2    -3.4500191910e+00
 2  1  3    -1.4841736613e-01
 2  2  1    -3.6588598305e+00
 2  2  2    -2.2932314577e+00
 2  2  3     2.9815689674e+00
 2  3  1     7.7343636481e-02
 2  3  2     3.0375314157e+00
 2  3  3    -3.0958915646e+00
 3  1  1     3.8809004347e+00
 3  1  2    -2.0691844976e-01
 3  1  3    -3.4633867709e+00
 3  2  1     7.7343636481e-02
 3  2  2     3.0375314157e+00
 3  2  3    -3.0958915646e+00
 3  3  1    -3.6540303250e+00
 3  3  2    -2.7906342417e+00
 3  3  3     2.3026753112e+00

    6
0.0000000000e+00 0.0000000000e+00 0.0000000000e+00
-5.5068943077e+00 -2.5775964062e-06 -3.3237176153e-05
     1      1      4
 1  1  1     7.9976581831e+00
 1  1  2     7.1448859909e-06
 1  1  3     5.7503414862e-07
 1  2  1     6.7891542237e-06
 1  2  2    -1.8252106203e-01
 1  2  3     3.0696992316e-01
 1  3  1    -2.5095456412e-03
 1  3  2     3.5729457653e-01
 1  3  3    -1.7843026934e-01
 2  1  1     6.7891542237e-06
 2  1  2    -1.8252106203e-01
 2  1  3     3.0696992316e-01
 2  2  1    -5.5750498372e-01
 2  2  2    -2.4610621519e-03
 2  2  3     2.5051947537e-03
 2  3  1    -1.2425445278e-01
 2  3  2     2.1372987067e-07
 2  3  3    -1.5814552043e-07
 3  1  1    -2.5095456412e-03
 3  1  2     3.5729457653e-01
 3  1  3    -1.7843026934e-01
 3  2  1    -1.2425445278e-01
 3  2  2     2.1372987067e-07
 3  2  3    -1.5814552043e-07
 3  3  1    -5.8299043756e-01
 3  3  2    -5.4136766447e-07
 3  3  3     2.4383469302e-03

    7
0.0000000000e+00 0.0000000000e+00 0.0000000000e+00
-5.5068943077e+00 -2.5775964062e-06 -3.3237176153e-05
     1      1      5
 1  1  1     2.3960016973e+00
 1  1  2    -3.9767921831e+00
 1  1  3    -4.0146027452e+00
 1  2  1    -3.9005474458e+00
 1  2  2     3.4500090302e+00
 1  2  3    -1.4841148733e-01
 1  3  1    -3.8809075707e+00
 1  3  2    -2.0691249822e-01
 1  3  3     3.4633832322e+00
 2  1  1    -3.9005474458e+00
 2  1  2     3.4500090302e+00
 2  1  3    -1.4841148733e-01
 2  2  1     3.6588506579e+00
 2  2  2    -2.2932378520e+00
 2  2  3    -2.9815844987e+00
 2  3  1     7.7350306261e-02
 2  3  2    -3.0375462418e+00
 2  3  3    -3.0959032859e+00
 3  1  1    -3.8809075707e+00
 3  1  2    -2.0691249822e-01
 3  1  3     3.4633832322e+00
 3  2  1     7.7350306261e-02
 3  2  2    -3.0375462418e+00
 3  2  3    -3.0959032859e+00
 3  3  1     3.6540279894e+00
 3  3  2    -2.7906458852e+00
 3  3  3    -2.3026914648e+00

    8
0.0000000000e+00 0.0000000000e+00 0.0000000000e+00
-5.5068943077e+00 -2.5775964062e-06 -3.3237176153e-05
     1      1      8
 1  1  1     2.3827119093e+00
 1  1  2     4.0158600299e+00
 1  1  3     3.9965187491e+00
 1  2  1     3.9393557545e+00
 1  2  2     3.4676486405e+00
 1  2  3    -1.7310178207e-01
 1  3  1     3.8986777908e+00
 1  3  2    -1.7810736963e-01
 1  3  3     3.4726315816e+00
 2  1  1     3.9393557545e+00
 2  1  2     3.4676486405e+00
 2  1  3    -1.7310178207e-01
 2  2  1     3.6615693260e+00
 2  2  2     2.2491335490e+00
 2  2  3     2.8829323252e+00
 2  3  1     4.7705730819e-02
 2  3  2     3.0396288879e+00
 2  3  3     3.1028077927e+00
 3  1  1     3.8986777908e+00
 3  1  2    -1.7810736963e-01
 3  1  3     3.4726315816e+00
 3  2  1     4.7705730819e-02
 3  2  2     3.0396288879e+00
 3  2  3     3.1028077927e+00
 3  3  1     3.6492757575e+00
 3  3  2     2.8920397547e+00
 3  3  3     2.3362983854e+00

    9
0.0000000000e+00 0.0000000000e+00 0.0000000000e+00
-5.5068610715e+00 2.3719061067e-06 5.5072316907e+00
     1      1      3
 1  1  1    -2.0869342802e-02
 1  1  2    -3.9056432034e-02
 1  1  3    -3.6879142747e-03
 1  2  1    -3.8800522267e-02
 1  2  2     7.7640055892e-03
 1  2  3     1.4553415530e-02
 1  3  1    -3.7046963031e-02
 1  3  2     2.7738303690e-02
 1  3  3    -3.2236503467e-02
 2  1  1    -3.8800522267e-02
 2  1  2     7.7640055892e-03
 2  1  3     1.4553415530e-02
 2  2  1    -2.0007111086e-02
 2  2  2     4.6572985460e-02
 2  2  3     1.8764782830e-02
 2  3  1    -7.9054120381e-04
 2  3  2    -7.9460950119e-02
 2  3  3    -6.8942927229e-03
 3  1  1    -3.7046963031e-02
 3  1  2     2.7738303690e-02
 3  1  3    -3.2236503467e-02
 3  2  1    -7.9054120381e-04
 3  2  2    -7.9460950119e-02
 3  2  3    -6.8942927229e-03
 3  3  1     5.0762192388e-03
 3  3  2    -1.0140603011e-01
 3  3  3    -2.0716076213e-07

   10
0.0000000000e+00 0.0000000000e+00 0.0000000000e+00
0.0000000000e+00 0.0000000000e+00 0.0000000000e+00
     1      3      1
 1  1  1     2.0869233537e-02
 1  1  2    -3.8800424674e-02
 1  1  3     3.7046918494e-02
 1  2  1    -3.9056420412e-02
 1  2  2    -7.7639588342e-03
 1  2  3     2.7738456777e-02
 1  3  1     3.6878712995e-03
 1  3  2     1.4553445388e-02
 1  3  3     3.2236573065e-02
 2  1  1    -3.8800424674e-02
 2  1  2     2.0007079222e-02
 2  1  3    -7.9040524223e-04
 2  2  1    -7.7639588342e-03
 2  2  2     4.6573241577e-02
 2  2  3     7.9460864438e-02
 2  3  1     1.4553445388e-02
 2  3  2    -1.8764696612e-02
 2  3  3    -6.8941533918e-03
 3  1  1     3.7046918494e-02
 3  1  2    -7.9040524223e-04
 3  1  3    -5.0763170616e-03
 3  2  1     2.7738456777e-02
 3  2  2     7.9460864438e-02
 3  2  3    -1.0140574906e-01
 3  3  1     3.2236573065e-02
 3  3  2    -6.8941533918e-03
 3  3  3    -6.7762635780e-17

   11
0.0000000000e+00 0.0000000000e+00 0.0000000000e+00
0.0000000000e+00 0.0000000000e+00 0.0000000000e+00
     1      3      3
 1  1  1    -5.1652306586e-03
 1  1  2    -6.9607812834e-03
 1  1  3     3.0529242021e-02
 1  2  1    -6.9607812834e-03
 1  2  2    -1.8264630240e-02
 1  2  3     1.4477668234e-02
 1  3  1     3.0529242021e-02
 1  3  2     1.4477668234e-02
 1  3  3     7.8014941283e-04
 2  1  1    -1.0100298814e-01
 2  1  2     7.9615794270e-02
 2  1  3     2.4857185500e-02
 2  2  1     7.9615794270e-02
 2  2  2     4.6573924155e-02
 2  2  3    -5.1551964667e-03
 2  3  1     2.4857185500e-02
 2  3  2    -5.1551964667e-03
 2  3  3    -3.7109327953e-02
 3  1  1    -2.8805692414e-03
 3  1  2    -2.0036721808e-03
 3  1  3     3.9432263357e-02
 3  2  1    -2.0036721808e-03
 3  2  2     2.0009729412e-02
 3  2  3    -3.8118754360e-02
 3  3  1     3.9432263357e-02
 3  3  2    -3.8118754360e-02
 3  3  3     2.0526575445e-02

   12
0.0000000000e+00 0.0000000000e+00 0.0000000000e+00
0.0000000000e+00 0.0000000000e+00 0.0000000000e+00
     1      3      4
 1  1  1    -4.0839656051e-02
 1  1  2     6.5306704157e-02
 1  1  3    -4.9749158532e-02
 1  2  1    -8.6736173799e-15
 1  2  2    -2.6584123030e-02
 1  2  3     1.0070711805e-02
 1  3  1    -3.1773494711e-02
 1  3  2    -4.7216068919e-02
 1  3  3    -3.3011544896e-02
 2  1  1     7.1553060172e-03
 2  1  2     1.7235215410e-02
 2  1  3    -1.7280821283e-02
 2  2  1     2.5523815335e-02
 2  2  2    -2.2378935738e-02
 2  2  3     2.5626115191e-02
 2  3  1     1.0090108930e-02
 2  3  2    -2.4616072475e-02
 2  3  3     0.0000000000e+00
 3  1  1    -2.4513601968e-03
 3  1  2    -1.9868121346e-03
 3  1  3    -2.4441015742e-03
 3  2  1    -1.8858865207e-02
 3  2  2     1.4835476427e-02
 3  2  3     7.1275812907e-03
 3  3  1    -5.3903958516e-02
 3  3  2     6.6165813555e-02
 3  3  3    -3.9520794887e-02

   13
0.0000000000e+00 0.0000000000e+00 0.0000000000e+00
0.0000000000e+00 0.0000000000e+00 0.0000000000e+00
     1      3      7
 1  1  1     2.5125805974e-02
 1  1  2    -1.9550134208e-02
 1  1  3    -1.7843047127e-02
 1  2  1     4.6009134757e-02
 1  2  2     5.2615279992e-02
 1  2  3    -5.2283607237e-02
 1  3  1    -2.4581625252e-03
 1  3  2     1.8184641169e-02
 1  3  3     0.0000000000e+00
 2  1  1     1.3264184487e-01
 2  1  2    -1.1685869373e-01
 2  1  3    -6.7822577576e-03
 2  2  1    -9.7374542241e-02
 2  2  2    -7.0769948400e-02
 2  2  3    -9.9933924566e-02
 2  3  1    -4.9500940031e-02
 2  3  2     4.8533335972e-02
 2  3  3     4.3995602912e-02
 3  1  1    -3.1726744231e-02
 3  1  2     4.7706607476e-03
 3  1  3    -3.1923237765e-02
 3  2  1    -6.8725068566e-03
 3  2  2    -1.1431069170e-01
 3  2  3     1.3238347670e-01
 3  3  1    -1.7761553341e-02
 3  3  2    -2.1157086909e-02
 3  3  3     1.8992066331e-02

   14
0.0000000000e+00 0.0000000000e+00 0.0000000000e+00
0.0000000000e+00 0.0000000000e+00 0.0000000000e+00
     1      4      1
 1  1  1    -7.9976581831e+00
 1  1  2     0.0000000000e+00
 1  1  3     2.5097639146e-03
 1  2  1     0.0000000000e+00
 1  2  2     1.8252225370e-01
 1  2  3     3.5729522784e-01
 1  3  1     0.0000000000e+00
 1  3  2     3.0697056977e-01
 1  3  3     1.7843146392e-01
 2  1  1     0.0000000000e+00
 2  1  2     5.5750453473e-01
 2  1  3    -1.2425239994e-01
 2  2  1     1.8252225370e-01
 2  2  2    -2.4602030358e-03
 2  2  3     0.0000000000e+00
 2  3  1     3.0697056977e-01
 2  3  2    -2.5046244545e-03
 2  3  3     0.0000000000e+00
 3  1  1     2.5097639146e-03
 3  1  2    -1.2425239994e-01
 3  1  3     5.8298999066e-01
 3  2  1     3.5729522784e-01
 3  2  2     0.0000000000e+00
 3  2  3    -4.0657581468e-16
 3  3  1     1.7843146392e-01
 3  3  2     0.0000000000e+00
 3  3  3    -2.4383469305e-03

   15
0.0000000000e+00 0.0000000000e+00 0.0000000000e+00
0.0000000000e+00 0.0000000000e+00 0.0000000000e+00
     1      4      3
 1  1  1    -4.0839656051e-02
 1  1  2    -8.6736173799e-15
 1  1  3    -3.1773494711e-02
 1  2  1     6.5306704157e-02
 1  2  2    -2.6584123030e-02
 1  2  3    -4.7216068919e-02
 1  3  1    -4.9749158532e-02
 1  3  2     1.0070711805e-02
 1  3  3    -3.3011544896e-02
 2  1  1     7.1553060172e-03
 2  1  2     2.5523815335e-02
 2  1  3     1.0090108930e-02
 2  2  1     1.7235215410e-02
 2  2  2    -2.2378935738e-02
 2  2  3    -2.4616072475e-02
 2  3  1    -1.7280821283e-02
 2  3  2     2.5626115191e-02
 2  3  3     0.0000000000e+00
 3  1  1    -2.4513601968e-03
 3  1  2    -1.8858865207e-02
 3  1  3    -5.3903958516e-02
 3  2  1    -1.9868121346e-03
 3  2  2     1.4835476427e-02
 3  2  3     6.6165813555e-02
 3  3  1    -2.4441015742e-03
 3  3  2     7.1275812907e-03
 3  3  3    -3.9520794887e-02

   16
0.0000000000e+00 0.0000000000e+00 0.0000000000e+00
0.0000000000e+00 0.0000000000e+00 0.0000000000e+00
     1      4      4
 1  1  1     8.4105514775e+00
 1  1  2    -2.5009558569e-03
 1  1  3    -2.4986941928e-03
 1  2  1    -2.5009558569e-03
 1  2  2    -5.5383483964e-01
 1  2  3    -5.2227433013e-02
 1  3  1    -2.4986941928e-03
 1  3  2    -5.2227433013e-02
 1  3  3    -5.4807575908e-01
 2  1  1     0.0000000000e+00
 2  1  2    -8.9049400289e-01
 2  1  3     2.9804817766e-01
 2  2  1    -8.9049400289e-01
 2  2  2     0.0000000000e+00
 2  2  3    -2.5030913197e-03
 2  3  1     2.9804817766e-01
 2  3  2    -2.5030913197e-03
 2  3  3    -2.4992338611e-03
 3  1  1     0.0000000000e+00
 3  1  2     3.1278627952e-01
 3  1  3    -8.4398903046e-01
 3  2  1     3.1278627952e-01
 3  2  2     0.0000000000e+00
 3  2  3     2.4851331025e-03
 3  3  1    -8.4398903046e-01
 3  3  2     2.4851331025e-03
 3  3  3    -2.4383469303e-03

   17
0.0000000000e+00 0.0000000000e+00 0.0000000000e+00
0.0000000000e+00 0.0000000000e+00 0.0000000000e+00
     1      4      6
 1  1  1    -1.8473639064e-01
 1  1  2    -4.3547576185e-01
 1  1  3     4.5405092064e-01
 1  2  1    -4.8008272712e-01
 1  2  2     1.9803205187e-01
 1  2  3    -1.2877129207e-01
 1  3  1     4.7432090518e-01
 1  3  2    -1.3134313098e-01
 1  3  3     2.0136460666e-01
 2  1  1    -3.1061373660e-02
 2  1  2     1.5225173692e-01
 2  1  3    -9.2114949733e-02
 2  2  1     3.4641107765e-01
 2  2  2    -3.3146834019e-02
 2  2  3    -2.3913166073e-01
 2  3  1    -3.0988686291e-01
 2  3  2    -1.2740420030e-01
 2  3  3    -1.0116585280e-01
 3  1  1     2.8599363358e-02
 3  1  2    -8.5548808196e-02
 3  1  3     1.5742032712e-01
 3  2  1    -3.1859046991e-01
 3  2  2     9.3793484723e-02
 3  2  3     8.4333304619e-02
 3  3  1     3.3400730296e-01
 3  3  2     2.4518591495e-01
 3  3  3     6.9758279098e-02

   18
0.0000000000e+00 0.0000000000e+00 0.0000000000e+00
0.0000000000e+00 0.0000000000e+00 0.0000000000e+00
     1      4      7
 1  1  1    -1.8731724719e-01
 1  1  2     4.3797717659e-01
 1  1  3    -4.2230525032e-01
 1  2  1     4.1727659881e-01
 1  2  2     1.9986989421e-01
 1  2  3    -1.2907933217e-01
 1  3  1    -4.2208981400e-01
 1  3  2    -1.3346397674e-01
 1  3  3     2.0128428725e-01
 2  1  1     2.3904206132e-02
 2  1  2     1.5520862002e-01
 2  1  3    -9.1756929001e-02
 2  2  1     3.4432846538e-01
 2  2  2     5.7979243309e-02
 2  2  3     2.6624385050e-01
 2  3  1    -2.7785273340e-01
 2  3  2     1.0677900156e-01
 2  3  3     1.0366593278e-01
 3  1  1    -2.8657369294e-02
 3  1  2    -8.4127939915e-02
 3  1  3     1.5746589551e-01
 3  2  1    -3.4950664769e-01
 3  2  2    -1.0861861867e-01
 3  2  3    -1.5299031051e-01
 3  3  1     3.3400894332e-01
 3  3  2    -2.5477660859e-01
 3  3  3    -2.5357216596e-02

   19
0.0000000000e+00 0.0000000000e+00 0.0000000000e+00
0.0000000000e+00 0.0000000000e+00 0.0000000000e+00
     1      6      1
 1  1  1    -2.3827007685e+00
 1  1  2     3.9393398389e+00
 1  1  3    -3.8986708286e+00
 1  2  1     4.0158441201e+00
 1  2  2    -3.4676397181e+00
 1  2  3    -1.7812634417e-01
 1  3  1    -3.9965118515e+00
 1  3  2    -1.7312070144e-01
 1  3  3    -3.4726293071e+00
 2  1  1     3.9393398389e+00
 2  1  2    -3.6615596725e+00
 2  1  3     4.7686090028e-02
 2  2  1    -3.4676397181e+00
 2  2  2     2.2491075201e+00
 2  2  3    -3.0396141899e+00
 2  3  1    -1.7312070144e-01
 2  3  2    -2.8829174504e+00
 2  3  3     3.1027896917e+00
 3  1  1    -3.8986708286e+00
 3  1  2     4.7686090028e-02
 3  1  3    -3.6492728772e+00
 3  2  1    -1.7812634417e-01
 3  2  2    -3.0396141899e+00
 3  2  3     2.8920212065e+00
 3  3  1    -3.4726293071e+00
 3  3  2     3.1027896917e+00
 3  3  3    -2.3362820246e+00

   20
0.0000000000e+00 0.0000000000e+00 0.0000000000e+00
0.0000000000e+00 0.0000000000e+00 0.0000000000e+00
     1      6      4
 1  1  1    -1.8473639064e-01
 1  1  2    -4.8008272712e-01
 1  1  3     4.7432090518e-01
 1  2  1    -4.3547576185e-01
 1  2  2     1.9803205187e-01
 1  2  3    -1.3134313098e-01
 1  3  1     4.5405092064e-01
 1  3  2    -1.2877129207e-01
 1  3  3     2.0136460666e-01
 2  1  1    -3.1061373660e-02
 2  1  2     3.4641107765e-01
 2  1  3    -3.0988686291e-01
 2  2  1     1.5225173692e-01
 2  2  2    -3.3146834019e-02
 2  2  3    -1.2740420030e-01
 2  3  1    -9.2114949733e-02
 2  3  2    -2.3913166073e-01
 2  3  3    -1.0116585280e-01
 3  1  1     2.8599363358e-02
 3  1  2    -3.1859046991e-01
 3  1  3     3.3400730296e-01
 3  2  1    -8.5548808196e-02
 3  2  2     9.3793484723e-02
 3  2  3     2.4518591495e-01
 3  3  1     1.5742032712e-01
 3  3  2     8.4333304619e-02
 3  3  3     6.9758279098e-02

   21
0.0000000000e+00 0.0000000000e+00 0.0000000000e+00
0.0000000000e+00 0.0000000000e+00 0.0000000000e+00
     1      6      6
 1  1  1     3.0107637434e+00
 1  1  2    -3.5202336162e+00
 1  1  3     3.4844875003e+00
 1  2  1    -3.5202336162e+00
 1  2  2     3.0769584142e+00
 1  2  3     1.7298097031e-01
 1  3  1     3.4844875003e+00
 1  3  2     1.7298097031e-01
 1  3  3     3.0757021755e+00
 2  1  1    -3.9107764197e+00
 2  1  2     3.2585153095e+00
 2  1  3     1.1409039065e-01
 2  2  1     3.2585153095e+00
 2  2  2    -2.2159582418e+00
 2  2  3     3.1445345826e+00
 2  3  1     1.1409039065e-01
 2  3  2     3.1445345826e+00
 2  3  3    -3.0041262822e+00
 3  1  1     3.8675705879e+00
 3  1  2     1.2301122546e-01
 3  1  3     3.2585964360e+00
 3  2  1     1.2301122546e-01
 3  2  2     2.9458202204e+00
 3  2  3    -3.1621661744e+00
 3  3  1     3.2585964360e+00
 3  3  2    -3.1621661744e+00
 3  3  3     2.2665102725e+00

   22
0.0000000000e+00 0.0000000000e+00 0.0000000000e+00
0.0000000000e+00 0.0000000000e+00 0.0000000000e+00
     1      6      7
 1  1  1    -4.4331154847e-01
 1  1  2     6.0973524332e-02
 1  1  3    -6.0133069903e-02
 1  2  1    -6.0141321558e-02
 1  2  2     1.9264904984e-01
 1  2  3     1.3649625939e-01
 1  3  1     5.7967209908e-02
 1  3  2     1.2890311695e-01
 1  3  3     1.9556150761e-01
 2  1  1     2.4992692962e-03
 2  1  2     5.6632020616e-02
 2  1  3     1.4810273176e-01
 2  2  1     5.6871266027e-02
 2  2  2    -6.5052130349e-15
 2  2  3     2.2485518140e-02
 2  3  1     1.5115472804e-01
 2  3  2    -2.2487828417e-02
 2  3  3     2.4999598283e-03
 3  1  1     2.4995289783e-03
 3  1  2     1.4790141010e-01
 3  1  3     5.6668563838e-02
 3  2  1     1.4065742040e-01
 3  2  2     0.0000000000e+00
 3  2  3     2.4960456671e-02
 3  3  1     5.6607199174e-02
 3  3  2    -2.4963898800e-02
 3  3  3     4.3368086899e-15

   23
0.0000000000e+00 0.0000000000e+00 0.0000000000e+00
0.0000000000e+00 0.0000000000e+00 0.0000000000e+00
     1      7      1
 1  1  1    -2.3960127288e+00
 1  1  2    -3.9005493714e+00
 1  1  3     3.8809004347e+00
 1  2  1    -3.9767936728e+00
 1  2  2    -3.4500191910e+00
 1  2  3    -2.0691844976e-01
 1  3  1     4.0145953154e+00
 1  3  2    -1.4841736613e-01
 1  3  3    -3.4633867709e+00
 2  1  1    -3.9005493714e+00
 2  1  2    -3.6588598305e+00
 2  1  3     7.7343636481e-02
 2  2  1    -3.4500191910e+00
 2  2  2    -2.2932314577e+00
 2  2  3     3.0375314157e+00
 2  3  1    -1.4841736613e-01
 2  3  2     2.9815689674e+00
 2  3  3    -3.0958915646e+00
 3  1  1     3.8809004347e+00
 3  1  2     7.7343636481e-02
 3  1  3    -3.6540303250e+00
 3  2  1    -2.0691844976e-01
 3  2  2     3.0375314157e+00
 3  2  3    -2.7906342417e+00
 3  3  1    -3.4633867709e+00
 3  3  2    -3.0958915646e+00
 3  3  3     2.3026753112e+00

   24
0.0000000000e+00 0.0000000000e+00 0.0000000000e+00
0.0000000000e+00 0.0000000000e+00 0.0000000000e+00
     1      7      3
 1  1  1     2.5125805974e-02
 1  1  2     4.6009134757e-02
 1  1  3    -2.4581625252e-03
 1  2  1    -1.9550134208e-02
 1  2  2     5.2615279992e-02
 1  2  3     1.8184641169e-02
 1  3  1    -1.7843047127e-02
 1  3  2    -5.2283607237e-02
 1  3  3     0.0000000000e+00
 2  1  1     1.3264184487e-01
 2  1  2    -9.7374542241e-02
 2  1  3    -4.9500940031e-02
 2  2  1    -1.1685869373e-01
 2  2  2    -7.0769948400e-02
 2  2  3     4.8533335972e-02
 2  3  1    -6.7822577576e-03
 2  3  2    -9.9933924566e-02
 2  3  3     4.3995602912e-02
 3  1  1    -3.1726744231e-02
 3  1  2    -6.8725068566e-03
 3  1  3    -1.7761553341e-02
 3  2  1     4.7706607476e-03
 3  2  2    -1.1431069170e-01
 3  2  3    -2.1157086909e-02
 3  3  1    -3.1923237765e-02
 3  3  2     1.3238347670e-01
 3  3  3     1.8992066331e-02

   25
0.0000000000e+00 0.0000000000e+00 0.0000000000e+00
0.0000000000e+00 0.0000000000e+00 0.0000000000e+00
     1      7      4
 1  1  1    -1.8731724719e-01
 1  1  2     4.1727659881e-01
 1  1  3    -4.2208981400e-01
 1  2  1     4.3797717659e-01
 1  2  2     1.9986989421e-01
 1  2  3    -1.3346397674e-01
 1  3  1    -4.2230525032e-01
 1  3  2    -1.2907933217e-01
 1  3  3     2.0128428725e-01
 2  1  1     2.3904206132e-02
 2  1  2     3.4432846538e-01
 2  1  3    -2.7785273340e-01
 2  2  1     1.5520862002e-01
 2  2  2     5.7979243309e-02
 2  2  3     1.0677900156e-01
 2  3  1    -9.1756929001e-02
 2  3  2     2.6624385050e-01
 2  3  3     1.0366593278e-01
 3  1  1    -2.8657369294e-02
 3  1  2    -3.4950664769e-01
 3  1  3     3.3400894332e-01
 3  2  1    -8.4127939915e-02
 3  2  2    -1.0861861867e-01
 3  2  3    -2.5477660859e-01
 3  3  1     1.5746589551e-01
 3  3  2    -1.5299031051e-01
 3  3  3    -2.5357216596e-02

   26
0.0000000000e+00 0.0000000000e+00 0.0000000000e+00
0.0000000000e+00 0.0000000000e+00 0.0000000000e+00
     1      7      6
 1  1  1    -4.4331154847e-01
 1  1  2    -6.0141321558e-02
 1  1  3     5.7967209908e-02
 1  2  1     6.0973524332e-02
 1  2  2     1.9264904984e-01
 1  2  3     1.2890311695e-01
 1  3  1    -6.0133069903e-02
 1  3  2     1.3649625939e-01
 1  3  3     1.9556150761e-01
 2  1  1     2.4992692962e-03
 2  1  2     5.6871266027e-02
 2  1  3     1.5115472804e-01
 2  2  1     5.6632020616e-02
 2  2  2    -6.5052130349e-15
 2  2  3    -2.2487828417e-02
 2  3  1     1.4810273176e-01
 2  3  2     2.2485518140e-02
 2  3  3     2.4999598283e-03
 3  1  1     2.4995289783e-03
 3  1  2     1.4065742040e-01
 3  1  3     5.6607199174e-02
 3  2  1     1.4790141010e-01
 3  2  2     0.0000000000e+00
 3  2  3    -2.4963898800e-02
 3  3  1     5.6668563838e-02
 3  3  2     2.4960456671e-02
 3  3  3     4.3368086899e-15

   27
0.0000000000e+00 0.0000000000e+00 0.0000000000e+00
0.0000000000e+00 0.0000000000e+00 0.0000000000e+00
     1      7      7
 1  1  1     3.0014999929e+00
 1  1  2     3.4973952070e+00
 1  1  3    -3.5143171511e+00
 1  2  1     3.4973952070e+00
 1  2  2     3.0048838723e+00
 1  2  3     1.9328807400e-01
 1  3  1    -3.5143171511e+00
 1  3  2     1.9328807400e-01
 1  3  3     3.0665394282e+00
 2  1  1     3.7415135086e+00
 2  1  2     3.3550383952e+00
 2  1  3     9.8855027586e-02
 2  2  1     3.3550383952e+00
 2  2  2     2.3060232649e+00
 2  2  3    -3.1703608042e+00
 2  3  1     9.8855027586e-02
 2  3  2    -3.1703608042e+00
 2  3  3     2.9457251112e+00
 3  1  1    -3.8230139002e+00
 3  1  2     1.3837739587e-01
 3  1  3     3.2811785734e+00
 3  2  1     1.3837739587e-01
 3  2  2    -2.8145982290e+00
 3  2  3     3.0915297008e+00
 3  3  1     3.2811785734e+00
 3  3  2     3.0915297008e+00
 3  3  3    -2.2963062263e+00

   28
-5.5068943077e+00 -2.5775964062e-06 -3.3237176153e-05
0.0000000000e+00 0.0000000000e+00 0.0000000000e+00
     1      4      1
 1  1  1     7.9976581831e+00
 1  1  2     6.7891542237e-06
 1  1  3    -2.5095456412e-03
 1  2  1     7.1448859909e-06
 1  2  2    -1.8252106203e-01
 1  2  3     3.5729457653e-01
 1  3  1     5.7503414862e-07
 1  3  2     3.0696992316e-01
 1  3  3    -1.7843026934e-01
 2  1  1     6.7891542237e-06
 2  1  2    -5.5750498372e-01
 2  1  3    -1.2425445278e-01
 2  2  1    -1.8252106203e-01
 2  2  2    -2.4610621519e-03
 2  2  3     2.1372987067e-07
 2  3  1     3.0696992316e-01
 2  3  2     2.5051947537e-03
 2  3  3    -1.5814552043e-07
 3  1  1    -2.5095456412e-03
 3  1  2    -1.2425445278e-01
 3  1  3    -5.8299043756e-01
 3  2  1     3.5729457653e-01
 3  2  2     2.1372987067e-07
 3  2  3    -5.4136766447e-07
 3  3  1    -1.7843026934e-01
 3  3  2    -1.5814552043e-07
 3  3  3     2.4383469302e-03

   29
-5.5068943077e+00 -2.5775964062e-06 -3.3237176153e-05
-5.5068943077e+00 -2.5775964062e-06 -3.3237176153e-05
     1      4      4
 1  1  1    -8.4105514822e+00
 1  1  2    -2.5074718797e-03
 1  1  3     2.4989199405e-03
 1  2  1    -2.5074718797e-03
 1  2  2     5.5383464722e-01
 1  2  3    -5.2225447203e-02
 1  3  1     2.4989199405e-03
 1  3  2    -5.2225447203e-02
 1  3  3     5.4807556889e-01
 2  1  1    -6.2051881974e-06
 2  1  2     8.9049509849e-01
 2  1  3     2.9805130079e-01
 2  2  1     8.9049509849e-01
 2  2  2     2.1946826827e-06
 2  2  3     2.5033214185e-03
 2  3  1     2.9805130079e-01
 2  3  2     2.5033214185e-03
 2  3  3    -2.4987074085e-03
 3  1  1     5.8593380925e-07
 3  1  2     3.1278939797e-01
 3  1  3     8.4399013129e-01
 3  2  1     3.1278939797e-01
 3  2  2     5.9455277570e-07
 3  2  3     2.4859320660e-03
 3  3  1     8.4399013129e-01
 3  3  2     2.4859320660e-03
 3  3  3     2.4383513756e-03

   30
-5.5068943077e+00 -2.5775964062e-06 -3.3237176153e-05
-5.5068943077e+00 -2.5775964062e-06 -3.3237176153e-05
     1      4      5
 1  1  1     1.8731807064e-01
 1  1  2     4.3797777844e-01
 1  1  3     4.2230583112e-01
 1  2  1     4.1727702314e-01
 1  2  2    -1.9986951119e-01
 1  2  3    -1.2907990745e-01
 1  3  1     4.2209017916e-01
 1  3  2    -1.3346440286e-01
 1  3  3    -2.0128466231e-01
 2  1  1     2.3903965113e-02
 2  1  2    -1.5520844948e-01
 2  1  3    -9.1757345199e-02
 2  2  1    -3.4432912572e-01
 2  2  2     5.7978113324e-02
 2  2  3    -2.6624404162e-01
 2  3  1    -2.7785365787e-01
 2  3  2    -1.0677955395e-01
 2  3  3     1.0366511910e-01
 3  1  1     2.8657006127e-02
 3  1  2    -8.4128373509e-02
 3  1  3    -1.5746635511e-01
 3  2  1    -3.4950773872e-01
 3  2  2     1.0861758406e-01
 3  2  3    -1.5299069580e-01
 3  3  1    -3.3401031017e-01
 3  3  2    -2.5477687238e-01
 3  3  3     2.5356669712e-02

   31
-5.5068943077e+00 -2.5775964062e-06 -3.3237176153e-05
-5.5068943077e+00 -2.5775964062e-06 -3.3237176153e-05
     1      4      8
 1  1  1     1.8473550401e-01
 1  1  2    -4.3547673313e-01
 1  1  3    -4.5405191067e-01
 1  2  1    -4.8008391669e-01
 1  2  2    -1.9803340753e-01
 1  2  3    -1.2877221121e-01
 1  3  1    -4.7432218181e-01
 1  3  2    -1.3134417375e-01
 1  3  3    -2.0136516920e-01
 2  1  1    -3.1061719193e-02
 2  1  2    -1.5225252404e-01
 2  1  3    -9.2115707561e-02
 2  2  1    -3.4641271684e-01
 2  2  2    -3.3146995975e-02
 2  2  3     2.3913136409e-01
 2  3  1    -3.0988841093e-01
 2  3  2     1.2740398651e-01
 2  3  3    -1.0116550752e-01
 3  1  1    -2.8599797747e-02
 3  1  2    -8.5549479575e-02
 3  1  3    -1.5742056764e-01
 3  2  1    -3.1859180786e-01
 3  2  2    -9.3793330368e-02
 3  2  3     8.4333293239e-02
 3  3  1    -3.3400820355e-01
 3  3  2     2.4518553734e-01
 3  3  3    -6.9757868436e-02

   32
-5.5068943077e+00 -2.5775964062e-06 -3.3237176153e-05
-5.5068610715e+00 2.3719061067e-06 5.5072316907e+00
     1      4      3
 1  1  1     4.0839723921e-02
 1  1  2     9.6334929920e-08
 1  1  3     3.1773459938e-02
 1  2  1     6.5306840566e-02
 1  2  2     2.6584096439e-02
 1  2  3    -4.7215908975e-02
 1  3  1     4.9749269224e-02
 1  3  2     1.0070841518e-02
 1  3  3     3.3011478096e-02
 2  1  1     7.1553086050e-03
 2  1  2    -2.5523845359e-02
 2  1  3     1.0090212718e-02
 2  2  1    -1.7235203170e-02
 2  2  2    -2.2378979361e-02
 2  2  3     2.4616116405e-02
 2  3  1    -1.7280825316e-02
 2  3  2    -2.5626149375e-02
 2  3  3     1.0012279132e-07
 3  1  1     2.4513535399e-03
 3  1  2    -1.8858825820e-02
 3  1  3     5.3904004720e-02
 3  2  1    -1.9868503372e-03