  72   72
1 1
     6.592765002847218    -0.000081685400973    -0.000465482225248
    -0.000081662065665     3.177500000318622    -0.000311832905300
    -0.000465407131545    -0.000311805196186     3.177480003089427
1 2
    -0.129175999987955    -0.000001108522118    -0.000001908961837
    -0.000001099503353     0.018215640001118    -0.000000709881293
    -0.000001910424435    -0.000000666364107     0.018219050012159
1 3
     0.000667724999962     0.000000000092536     0.000000004363010
     0.000000004687290    -0.000197700000000    -0.000000002722451
     0.000000005970289     0.000000000177677    -0.000308672000024
1 4
    -0.000484014999992     0.000000000225910    -0.000000003499085
     0.000000010226673    -0.000482650000000    -0.000000001999862
    -0.000000002078988     0.000000000433767    -0.000000151499977
1 5
     0.000668184999997     0.000000000144584     0.000000001194784
    -0.000000005312921    -0.000308900000000    -0.000000004822002
     0.000000000967522     0.000000000277614    -0.000197957000003
1 6
    -0.000484410001617     0.000000000000070     0.000000265915234
     0.000000000226615    -0.000000150000000    -0.000000002065813
     0.000000267923404     0.000000000000135    -0.000483009501603
1 7
     0.000002035000123     0.000000001386120    -0.000000021119499
    -0.000000005000935    -0.002962695000093     0.000000120163859
    -0.000000020012277     0.000000102662631    -0.002962534999981
1 8
    -0.000000000000000    -0.000000000000000    -0.000000000000000
     0.000000000000000     0.000000000000000     0.000000000000000
     0.000000000000000     0.000000000000000     0.000000000000000
1 9
    -0.050020113992816     0.080825297584275     0.062272500806813
     0.071864863596852    -0.050022993842827    -0.044703293895325
    -0.044676012716146     0.062269257177711     0.127596664362537
1 10
    -0.050016096783543    -0.080827500773495     0.062274508952820
    -0.071862486414677    -0.050026856159010     0.044703656102908
    -0.044665283569459    -0.062266067247413     0.127597583998425
1 11
    -0.050017935967523    -0.080825052403905    -0.062270599185073
    -0.071861316741477    -0.050018918137660    -0.044691635568026
     0.044669166440590     0.062266982730677     0.127594415967177
1 12
    -0.050018153225524     0.080827749218598    -0.062270541041238
     0.071860533260629    -0.050021881865258     0.044694164429321
     0.044666937275912    -0.062265142838084     0.127597335633841
1 13
     0.000001424967243     0.000387546424443    -0.000012241654566
     0.000178430006895     0.000001402829695    -0.000008669496468
    -0.000008410168959    -0.000012442840096    -0.000553614918330
1 14
     0.000001430134085    -0.000387475475867    -0.000012216663267
    -0.000178409993135     0.000001400170255     0.000008695503435
    -0.000008379848290     0.000012461337148    -0.000553519934088
1 15
     0.000001410032109    -0.000387525576759     0.000012433345149
    -0.000178400008317     0.000001421192494    -0.000008574508060
     0.000008515151822    -0.000012245162568    -0.000553575067329
1 16
     0.000001409865200     0.000387462425373     0.000012418336632
     0.000178389991697     0.000001417807527     0.000008590491875
     0.000008499831168     0.000012254660398    -0.000553495082665
1 17
    -0.050023762937719     0.062273810058208     0.080821772811600
    -0.044669341207634     0.127592011028157     0.062266757135592
     0.071881642037729    -0.044698390490946    -0.050029593718287
1 18
    -0.050018145343890     0.062278470456721    -0.080830418922262
    -0.044672961956206     0.127595430636270    -0.062269067164143
    -0.071865107992919     0.044705059477856    -0.050025456227458
1 19
     0.000001422427411    -0.000012374689111     0.000387384997194
    -0.000008488161053    -0.000553439986481    -0.000012285182693
     0.000178369889044    -0.000008589427930     0.000001417673180
1 20
     0.000001419080410    -0.000012264793034    -0.000387355014266
    -0.000008455340294    -0.000553395002012     0.000012395180143
    -0.000178351750965     0.000008625571366     0.000001402326540
1 21
    -0.050021587142818    -0.062276139892861    -0.080826277216045
     0.044678238048895     0.127601569364598     0.062271332833838
    -0.071868988274037    -0.044707238843079    -0.050025368179650
1 22
    -0.050026004735305    -0.062275179499195     0.080827531095705
     0.044670608796320     0.127591488972780    -0.062267792868059
     0.071878411759479     0.044698061160185    -0.050028531831098
1 23
     0.000001416572656     0.000012325310901    -0.000387340002688
     0.000008480159732    -0.000553399998044    -0.000012339819864
    -0.000178380271170    -0.000008594577030     0.000001402348679
1 24
     0.000001422919627     0.000012315207326     0.000387309985668
     0.000008517338973    -0.000553325013465     0.000012339817343
     0.000178340833758     0.000008560422963     0.000001417651502
1 25
    -1.989449999791142    -0.000004901741323    -0.000010505568929
    -0.000021418283091     0.637773804931943    -0.339103073463396
    -0.000032943689791    -0.339120073151768     0.637768804822793
1 26
    -1.989354999941642     0.000013804541854     0.000015026940520
     0.000017731652728     0.637803195042438     0.339128926519800
    -0.000011044298298     0.339143926708927     0.637774195126686
1 27
     0.003028449999809    -0.000000349807390     0.000000086186498
    -0.000000001418294    -0.005780900374259    -0.003197130046220
     0.000000031723366     0.000416405197533     0.000051357872811
1 28
     0.003028099999809     0.000000255218559    -0.000000061805971
    -0.000000001418130    -0.005780549625751     0.003196384953868
     0.000000031725478    -0.000416344806433     0.000051337127712
1 29
     0.003029250002549     0.000000519275247     0.000002774710746
    -0.000000051418264     0.000051402874972     0.000416600198966
    -0.000000418281417    -0.003197600049331    -0.005783347891153
1 30
     0.003028900001318    -0.000000369323062     0.000002120088602
    -0.000000001418280     0.000051397125003    -0.000416524802531
    -0.000000218279350     0.003197549956037    -0.005781342638455
1 31
    -0.000000000000000    -0.000000000000000     0.000000000000000
     0.000000000000000     0.000000000000000    -0.000000000000000
     0.000000000000000    -0.000000000000000    -0.000000000000000
1 32
    -0.000000000000000    -0.000000000000000     0.000000000000000
     0.000000000000000     0.000000000000000    -0.000000000000000
     0.000000000000000    -0.000000000000000    -0.000000000000000
1 33
    -0.023354841254435    -0.049317023091596    -0.049318725410226
    -0.024407967114687    -0.046071483557028     0.007393564520665
    -0.024408837118023     0.007398839032704    -0.046068709007238
1 34
    -0.562221976898949     0.794715835482170     0.794691045383227
     0.457760751718293    -1.111901229321296    -0.714938872396897
     0.457726581598728    -0.714935796804076    -1.111867653413272
1 35
     0.008569893974108    -0.011861380137456    -0.007005003951144
    -0.004965520155420     0.007963023967281     0.006474503143384
     0.017951952743483    -0.020476935573353     0.000152536456280
1 36
    -0.000075949172677     0.004552515219986    -0.004050415965779
     0.008513008201469     0.010236000849254     0.007753514956976
    -0.009081507192476    -0.003315536673657    -0.014524482524075
1 37
     0.008571521549815    -0.007007039161406    -0.011865038474056
     0.017957000448523     0.000153497457924    -0.020483501603680
    -0.004963067867312     0.006476542149390     0.007963090014243
1 38
    -0.000076047130254    -0.004049039998967     0.004551439772973
    -0.009081007619105    -0.014523505075596    -0.003317511335477
     0.008513008620244     0.007753537488469     0.010235975513672
1 39
    -0.000000000000000    -0.000000000000000    -0.000000000000000
     0.000000000000000     0.000000000000000     0.000000000000000
     0.000000000000000     0.000000000000000     0.000000000000000
1 40
     0.000106967107940     0.000053975216882     0.000053974623944
     0.005057495402313     0.003909496555148     0.003802996459386
     0.005057494809173     0.003802996160710     0.003909496256428
1 41
    -0.562089452051338     0.794616705754829    -0.794617124019964
     0.457659324742117    -1.111845014929549     0.714865871874714
    -0.457648319109902     0.714873703743649    -1.111841346967235
1 42
    -0.023346135900255    -0.049310933805481     0.049314281545962
    -0.024404011014884    -0.046069470257875    -0.007395981665534
     0.024409162825885    -0.007394661005854    -0.046074290963771
1 43
    -0.000076058800265     0.004551475179616     0.004049591289965
     0.008514491869282     0.010236994884588    -0.007753988836789
     0.009081992806852     0.003318463331726    -0.014524017470522
1 44
     0.008571110675073    -0.011863627321248     0.007003002106579
    -0.004965987871867     0.007963987142907    -0.006473003417145
    -0.017952047263439     0.020477564439343     0.000152963554453
1 45
    -0.000075944358827    -0.004050946398105    -0.004553063342236
    -0.009082992308382    -0.014526491130235     0.003317992926896
    -0.008514491378592    -0.007754462497342     0.010237524495693
1 46
     0.008571961624148    -0.007005460991388     0.011863942344787
     0.017953991520368     0.000152509102902     0.020478987282520
     0.004965932132736    -0.006474957859246     0.007964409996429
1 47
     0.000107028163193     0.000053521128916    -0.000053521824335
     0.005058504498379     0.003910503395416    -0.003804503491627
    -0.005058505192102    -0.003804003837454     0.003911003742194
1 48
     0.000000000000000     0.000000000000000    -0.000000000000000
    -0.000000000000000    -0.000000000000000     0.000000000000000
     0.000000000000000    -0.000000000000000     0.000000000000000
1 49
    -0.562305048979621    -0.794813295042228     0.794818876760945
    -0.457880748341464    -1.111987270705894     0.715042627648248
     0.457836305007227     0.715016796049763    -1.111984439340566
1 50
    -0.023350364109832     0.049313066217176    -0.049316218492017
     0.024409032882356    -0.046071516441643    -0.007393435480970
    -0.024407881017954    -0.007398256197883    -0.046068195732965
1 51
    -0.000076441209262    -0.004550024817232    -0.004047908719619
    -0.008513491799214     0.010235999147348    -0.007753485046009
    -0.009080491887416     0.003318018259991    -0.014522468602724
1 52
     0.008571889322537     0.011864372676369    -0.007002997890683
     0.004965979843204     0.007964476030431    -0.006473496857566
     0.017952443805784     0.020477921240898     0.000152548080826
1 53
    -0.000075555634206     0.004049553592202     0.004552436661817
     0.009080992380230    -0.014524494925118     0.003316488663162
     0.008513492294689    -0.007753011385492     0.010236969545534
1 54
     0.008571538362094     0.007007539018179    -0.011865057648667
    -0.017955499551064     0.000152502541842     0.020482498396362
    -0.004963535592060    -0.006476542427415     0.007963053197314
1 55
     0.000107471839599    -0.000053478876656     0.000053978181236
    -0.005058004598381     0.003909503444626    -0.003803503541071
     0.005058003897150    -0.003803003190813     0.003910003092535
1 56
     0.000000000000000    -0.000000000000000     0.000000000000000
    -0.000000000000000     0.000000000000000    -0.000000000000000
    -0.000000000000000     0.000000000000000     0.000000000000000
1 57
    -0.023351658728702     0.049316976917820     0.049322274616126
     0.024406988990439    -0.046071029747277     0.007396518329836
     0.024406118991695     0.007397243778079    -0.046073304306355
1 58
    -0.561959524989712    -0.794451166144064    -0.794429456017263
    -0.457464975509105    -1.111677485318816    -0.714681628380226
    -0.457436597451668    -0.714683706414088    -1.111655563334019
1 59
     0.008571106032789     0.011863119872233     0.007003996046585
     0.004965012129042     0.007963512858243     0.006473996582399
    -0.017953056188619    -0.020478578750675     0.000152951912701
1 60
    -0.000076050829879    -0.004552984778032     0.004050584040554
    -0.008514008130735     0.010237505113888     0.007753511164108
     0.009082008110692    -0.003315981723499    -0.014525531413445
1 61
     0.008570978431771     0.007005460848395     0.011863961516122
    -0.017955008479200     0.000152990897099    -0.020480012717523
     0.004965964410878     0.006474957584688     0.007964446807068
1 62
    -0.000075952858148     0.004049459998780    -0.004551560229910
     0.009082007692086    -0.014524508868643    -0.003318507072914
    -0.008515007703826     0.007753988615086     0.010236530450990
1 63
    -0.000000000000000     0.000000000000000     0.000000000000000
     0.000000000000000    -0.000000000000000    -0.000000000000000
     0.000000000000000    -0.000000000000000     0.000000000000000
1 64
     0.000107032895320    -0.000053524786374    -0.000053525379312
    -0.005057995502081     0.003909996605042     0.003803496509280
    -0.005057996100210     0.003803496809021     0.003909996904739
1 65
     0.043697389695796     0.043826801811751    -0.043825274168396
    -0.028793196354081    -0.040851210348509     0.044290307256913
     0.028792912164206     0.044289072220009    -0.040851625320020
1 66
     0.000426027705265     0.000479911001867    -0.000479845176290
     0.000485895237399     0.000042344927462    -0.000169234813347
    -0.000485903007753    -0.000169277934310     0.000042333047951
1 67
     0.043688687225859     0.043819236398636     0.043818917247313
    -0.028790194574695    -0.040847630701849    -0.044284333794519
    -0.028787737785972    -0.044284077737551    -0.040844474646984
1 68
     0.000425726841162     0.000479733959245     0.000479819665183
     0.000485794363898     0.000042359623236     0.000169139737207
     0.000485696994153     0.000169152066746     0.000042356952288
1 69
     0.043693562737302    -0.043820763591037    -0.043819682722059
     0.028795753647263    -0.040848789657353    -0.044288892747890
     0.028793410430845    -0.044285698830862    -0.040849195745689
1 70
     0.000426168161212    -0.000480071042080    -0.000479905334674
    -0.000485964762510     0.000042345072527     0.000169275186691
    -0.000486077135169     0.000169372859163     0.000042322744088
1 71
     0.043689110266246    -0.043823098175172     0.043822825811521
     0.028787605423715    -0.040849219298746     0.044287166206870
    -0.028786189534961     0.044286751183613    -0.040848054271728
1 72
     0.000425762295875    -0.000479748998602     0.000479789823473
    -0.000485750636124     0.000042370376816    -0.000169105262784
     0.000485702867088    -0.000169202142804     0.000042362256457
2 1
    -0.129175999987955    -0.000001108522118    -0.000001908961837
    -0.000001099503353     0.018215640001118    -0.000000709881293
    -0.000001910424435    -0.000000666364107     0.018219050012159
2 2
     6.592765002847218    -0.000081685400973    -0.000465482225248
    -0.000081662065665     3.177500000318621    -0.000311832905300
    -0.000465407131545    -0.000311805196186     3.177480003089427
2 3
    -0.000484014999992     0.000000000225910    -0.000000003499085
     0.000000010226673    -0.000482650000000    -0.000000001999862
    -0.000000002078988     0.000000000433767    -0.000000151499977
2 4
     0.000667724999962     0.000000000092536     0.000000004363010
     0.000000004687290    -0.000197700000000    -0.000000002722451
     0.000000005970289     0.000000000177677    -0.000308672000024
2 5
    -0.000484410001617     0.000000000000070     0.000000265915234
     0.000000000226615    -0.000000150000000    -0.000000002065813
     0.000000267923404     0.000000000000135    -0.000483009501603
2 6
     0.000668184999997     0.000000000144584     0.000000001194784
    -0.000000005312921    -0.000308900000000    -0.000000004822002
     0.000000000967522     0.000000000277614    -0.000197957000003
2 7
    -0.000000000000000    -0.000000000000000    -0.000000000000000
     0.000000000000000     0.000000000000000     0.000000000000000
     0.000000000000000     0.000000000000000     0.000000000000000
2 8
     0.000002035000123     0.000000001386120    -0.000000021119499
    -0.000000005000935    -0.002962695000093     0.000000120163859
    -0.000000020012277     0.000000102662631    -0.002962534999981
2 9
    -0.050016096783543    -0.080827500773495     0.062274508952820
    -0.071862486414677    -0.050026856159010     0.044703656102908
    -0.044665283569459    -0.062266067247413     0.127597583998425
2 10
    -0.050020113992816     0.080825297584275     0.062272500806813
     0.071864863596852    -0.050022993842827    -0.044703293895325
    -0.044676012716146     0.062269257177711     0.127596664362537
2 11
    -0.050018153225524     0.080827749218598    -0.062270541041238
     0.071860533260629    -0.050021881865258     0.044694164429321
     0.044666937275912    -0.062265142838084     0.127597335633841
2 12
    -0.050017935967523    -0.080825052403905    -0.062270599185073
    -0.071861316741477    -0.050018918137660    -0.044691635568026
     0.044669166440590     0.062266982730677     0.127594415967177
2 13
     0.000001430134085    -0.000387475475867    -0.000012216663267
    -0.000178409993135     0.000001400170255     0.000008695503435
    -0.000008379848290     0.000012461337148    -0.000553519934088
2 14
     0.000001424967243     0.000387546424443    -0.000012241654566
     0.000178430006895     0.000001402829695    -0.000008669496468
    -0.000008410168959    -0.000012442840096    -0.000553614918330
2 15
     0.000001409865200     0.000387462425373     0.000012418336632
     0.000178389991697     0.000001417807527     0.000008590491875
     0.000008499831168     0.000012254660398    -0.000553495082665
2 16
     0.000001410032109    -0.000387525576759     0.000012433345149
    -0.000178400008317     0.000001421192494    -0.000008574508060
     0.000008515151822    -0.000012245162568    -0.000553575067329
2 17
    -0.050018145343890     0.062278470456721    -0.080830418922262
    -0.044672961956206     0.127595430636270    -0.062269067164143
    -0.071865107992919     0.044705059477856    -0.050025456227458
2 18
    -0.050023762937719     0.062273810058208     0.080821772811600
    -0.044669341207634     0.127592011028157     0.062266757135592
     0.071881642037729    -0.044698390490946    -0.050029593718287
2 19
     0.000001419080410    -0.000012264793034    -0.000387355014266
    -0.000008455340294    -0.000553395002012     0.000012395180143
    -0.000178351750965     0.000008625571366     0.000001402326540
2 20
     0.000001422427411    -0.000012374689111     0.000387384997194
    -0.000008488161053    -0.000553439986481    -0.000012285182693
     0.000178369889044    -0.000008589427930     0.000001417673180
2 21
    -0.050026004735305    -0.062275179499195     0.080827531095705
     0.044670608796320     0.127591488972780    -0.062267792868059
     0.071878411759479     0.044698061160185    -0.050028531831098
2 22
    -0.050021587142818    -0.062276139892861    -0.080826277216045
     0.044678238048895     0.127601569364598     0.062271332833838
    -0.071868988274037    -0.044707238843079    -0.050025368179650
2 23
     0.000001422919627     0.000012315207326     0.000387309985668
     0.000008517338973    -0.000553325013465     0.000012339817343
     0.000178340833758     0.000008560422963     0.000001417651502
2 24
     0.000001416572656     0.000012325310901    -0.000387340002688
     0.000008480159732    -0.000553399998044    -0.000012339819864
    -0.000178380271170    -0.000008594577030     0.000001402348679
2 25
    -1.989354999941642     0.000013804541854     0.000015026940520
     0.000017731652728     0.637803195042438     0.339128926519800
    -0.000011044298298     0.339143926708927     0.637774195126686
2 26
    -1.989449999791142    -0.000004901741323    -0.000010505568929
    -0.000021418283091     0.637773804931943    -0.339103073463396
    -0.000032943689791    -0.339120073151768     0.637768804822793
2 27
     0.003028099999809     0.000000255218559    -0.000000061805971
    -0.000000001418130    -0.005780549625751     0.003196384953868
     0.000000031725478    -0.000416344806433     0.000051337127712
2 28
     0.003028449999809    -0.000000349807390     0.000000086186498
    -0.000000001418294    -0.005780900374259    -0.003197130046220
     0.000000031723366     0.000416405197533     0.000051357872811
2 29
     0.003028900001318    -0.000000369323062     0.000002120088602
    -0.000000001418280     0.000051397125003    -0.000416524802531
    -0.000000218279350     0.003197549956037    -0.005781342638455
2 30
     0.003029250002549     0.000000519275247     0.000002774710746
    -0.000000051418264     0.000051402874972     0.000416600198966
    -0.000000418281417    -0.003197600049331    -0.005783347891153
2 31
    -0.000000000000000    -0.000000000000000     0.000000000000000
     0.000000000000000     0.000000000000000    -0.000000000000000
     0.000000000000000    -0.000000000000000    -0.000000000000000
2 32
    -0.000000000000000    -0.000000000000000     0.000000000000000
     0.000000000000000     0.000000000000000    -0.000000000000000
     0.000000000000000    -0.000000000000000    -0.000000000000000
2 33
    -0.562221976898949     0.794715835482170     0.794691045383227
     0.457760751718293    -1.111901229321296    -0.714938872396897
     0.457726581598728    -0.714935796804076    -1.111867653413272
2 34
    -0.023354841254435    -0.049317023091596    -0.049318725410226
    -0.024407967114687    -0.046071483557028     0.007393564520665
    -0.024408837118023     0.007398839032704    -0.046068709007238
2 35
    -0.000075949172677     0.004552515219986    -0.004050415965779
     0.008513008201469     0.010236000849254     0.007753514956976
    -0.009081507192476    -0.003315536673657    -0.014524482524075
2 36
     0.008569893974108    -0.011861380137456    -0.007005003951144
    -0.004965520155420     0.007963023967281     0.006474503143384
     0.017951952743483    -0.020476935573353     0.000152536456280
2 37
    -0.000076047130254    -0.004049039998967     0.004551439772973
    -0.009081007619105    -0.014523505075596    -0.003317511335477
     0.008513008620244     0.007753537488469     0.010235975513672
2 38
     0.008571521549815    -0.007007039161406    -0.011865038474056
     0.017957000448523     0.000153497457924    -0.020483501603680
    -0.004963067867312     0.006476542149390     0.007963090014243
2 39
     0.000106967107940     0.000053975216882     0.000053974623944
     0.005057495402313     0.003909496555148     0.003802996459386
     0.005057494809173     0.003802996160710     0.003909496256428
2 40
    -0.000000000000000    -0.000000000000000    -0.000000000000000
     0.000000000000000     0.000000000000000     0.000000000000000
     0.000000000000000     0.000000000000000     0.000000000000000
2 41
    -0.023346135900255    -0.049310933805481     0.049314281545962
    -0.024404011014884    -0.046069470257875    -0.007395981665534
     0.024409162825885    -0.007394661005854    -0.046074290963771
2 42
    -0.562089452051338     0.794616705754829    -0.794617124019964
     0.457659324742117    -1.111845014929549     0.714865871874714
    -0.457648319109902     0.714873703743649    -1.111841346967235
2 43
     0.008571110675073    -0.011863627321248     0.007003002106579
    -0.004965987871867     0.007963987142907    -0.006473003417145
    -0.017952047263439     0.020477564439343     0.000152963554453
2 44
    -0.000076058800265     0.004551475179616     0.004049591289965
     0.008514491869282     0.010236994884588    -0.007753988836789
     0.009081992806852     0.003318463331726    -0.014524017470522
2 45
     0.008571961624148    -0.007005460991388     0.011863942344787
     0.017953991520368     0.000152509102902     0.020478987282520
     0.004965932132736    -0.006474957859246     0.007964409996429
2 46
    -0.000075944358827    -0.004050946398105    -0.004553063342236
    -0.009082992308382    -0.014526491130235     0.003317992926896
    -0.008514491378592    -0.007754462497342     0.010237524495693
2 47
     0.000000000000000     0.000000000000000    -0.000000000000000
    -0.000000000000000    -0.000000000000000     0.000000000000000
     0.000000000000000    -0.000000000000000     0.000000000000000
2 48
     0.000107028163193     0.000053521128916    -0.000053521824335
     0.005058504498379     0.003910503395416    -0.003804503491627
    -0.005058505192102    -0.003804003837454     0.003911003742194
2 49
    -0.023350364109832     0.049313066217176    -0.049316218492017
     0.024409032882356    -0.046071516441643    -0.007393435480970
    -0.024407881017954    -0.007398256197883    -0.046068195732965
2 50
    -0.562305048979621    -0.794813295042228     0.794818876760945
    -0.457880748341464    -1.111987270705894     0.715042627648248
     0.457836305007227     0.715016796049763    -1.111984439340566
2 51
     0.008571889322537     0.011864372676369    -0.007002997890683
     0.004965979843204     0.007964476030431    -0.006473496857566
     0.017952443805784     0.020477921240898     0.000152548080826
2 52
    -0.000076441209262    -0.004550024817232    -0.004047908719619
    -0.008513491799214     0.010235999147348    -0.007753485046009
    -0.009080491887416     0.003318018259991    -0.014522468602724
2 53
     0.008571538362094     0.007007539018179    -0.011865057648667
    -0.017955499551064     0.000152502541842     0.020482498396362
    -0.004963535592060    -0.006476542427415     0.007963053197314
2 54
    -0.000075555634206     0.004049553592202     0.004552436661817
     0.009080992380230    -0.014524494925118     0.003316488663162
     0.008513492294689    -0.007753011385492     0.010236969545534
2 55
     0.000000000000000    -0.000000000000000     0.000000000000000
    -0.000000000000000     0.000000000000000    -0.000000000000000
    -0.000000000000000     0.000000000000000     0.000000000000000
2 56
     0.000107471839599    -0.000053478876656     0.000053978181236
    -0.005058004598381     0.003909503444626    -0.003803503541071
     0.005058003897150    -0.003803003190813     0.003910003092535
2 57
    -0.561959524989712    -0.794451166144064    -0.794429456017263
    -0.457464975509105    -1.111677485318816    -0.714681628380226
    -0.457436597451668    -0.714683706414088    -1.111655563334019
2 58
    -0.023351658728702     0.049316976917820     0.049322274616126
     0.024406988990439    -0.046071029747277     0.007396518329836
     0.024406118991695     0.007397243778079    -0.046073304306355
2 59
    -0.000076050829879    -0.004552984778032     0.004050584040554
    -0.008514008130735     0.010237505113888     0.007753511164108
     0.009082008110692    -0.003315981723499    -0.014525531413445
2 60
     0.008571106032789     0.011863119872233     0.007003996046585
     0.004965012129042     0.007963512858243     0.006473996582399
    -0.017953056188619    -0.020478578750675     0.000152951912701
2 61
    -0.000075952858148     0.004049459998780    -0.004551560229910
     0.009082007692086    -0.014524508868643    -0.003318507072914
    -0.008515007703826     0.007753988615086     0.010236530450990
2 62
     0.008570978431771     0.007005460848395     0.011863961516122
    -0.017955008479200     0.000152990897099    -0.020480012717523
     0.004965964410878     0.006474957584688     0.007964446807068
2 63
     0.000107032895320    -0.000053524786374    -0.000053525379312
    -0.005057995502081     0.003909996605042     0.003803496509280
    -0.005057996100210     0.003803496809021     0.003909996904739
2 64
    -0.000000000000000     0.000000000000000     0.000000000000000
     0.000000000000000    -0.000000000000000    -0.000000000000000
     0.000000000000000    -0.000000000000000     0.000000000000000
2 65
     0.000426027705265     0.000479911001867    -0.000479845176290
     0.000485895237399     0.000042344927462    -0.000169234813347
    -0.000485903007753    -0.000169277934310     0.000042333047951
2 66
     0.043697389695796     0.043826801811751    -0.043825274168396
    -0.028793196354081    -0.040851210348508     0.044290307256913
     0.028792912164206     0.044289072220009    -0.040851625320020
2 67
     0.000425726841162     0.000479733959245     0.000479819665183
     0.000485794363898     0.000042359623236     0.000169139737207
     0.000485696994153     0.000169152066746     0.000042356952288
2 68
     0.043688687225859     0.043819236398636     0.043818917247313
    -0.028790194574695    -0.040847630701849    -0.044284333794519
    -0.028787737785972    -0.044284077737551    -0.040844474646984
2 69
     0.000426168161212    -0.000480071042080    -0.000479905334674
    -0.000485964762510     0.000042345072527     0.000169275186691
    -0.000486077135169     0.000169372859163     0.000042322744088
2 70
     0.043693562737302    -0.043820763591037    -0.043819682722059
     0.028795753647263    -0.040848789657353    -0.044288892747890
     0.028793410430845    -0.044285698830862    -0.040849195745689
2 71
     0.000425762295875    -0.000479748998602     0.000479789823473
    -0.000485750636124     0.000042370376816    -0.000169105262784
     0.000485702867088    -0.000169202142804     0.000042362256457
2 72
     0.043689110266246    -0.043823098175172     0.043822825811521
     0.028787605423715    -0.040849219298746     0.044287166206870
    -0.028786189534961     0.044286751183613    -0.040848054271728
3 1
     0.000667724999962     0.000000000092536     0.000000004363010
     0.000000004687290    -0.000197700000000    -0.000000002722451
     0.000000005970289     0.000000000177677    -0.000308672000024
3 2
    -0.000484014999992     0.000000000225910    -0.000000003499085
     0.000000010226673    -0.000482650000000    -0.000000001999862