   0.61457E+00   0.67802E-03   0.67802E-03   0.67802E-03   0.68566E-03   0.25716E-03   0.33839E-03   0.33839E-03   0.33839E-03   0.36317E-04
   0.12291E+01   0.19471E-02   0.19471E-02   0.19471E-02   0.19705E-02   0.73934E-03   0.97233E-03   0.97233E-03   0.97230E-03   0.10471E-03
   0.18437E+01   0.51320E-02   0.51317E-02   0.51320E-02   0.52033E-02   0.19551E-02   0.25654E-02   0.25654E-02   0.25651E-02   0.27675E-03
   0.24583E+01   0.10240E-01   0.10240E-01   0.10240E-01   0.10436E-01   0.39207E-02   0.51313E-02   0.51312E-02   0.51315E-02   0.55170E-03
   0.30729E+01   0.14119E-01   0.14120E-01   0.14119E-01   0.14525E-01   0.54492E-02   0.71026E-02   0.71026E-02   0.71029E-02   0.75655E-03
   0.36874E+01   0.19961E-01   0.19961E-01   0.19962E-01   0.20708E-01   0.77711E-02   0.10088E-01   0.10088E-01   0.10088E-01   0.10651E-02
   0.43020E+01   0.31733E-01   0.31733E-01   0.31733E-01   0.33359E-01   0.12477E-01   0.16172E-01   0.16172E-01   0.16172E-01   0.16904E-02
   0.49166E+01   0.48401E-01   0.48402E-01   0.48402E-01   0.52010E-01   0.19225E-01   0.25010E-01   0.25009E-01   0.25010E-01   0.25626E-02
   0.55311E+01   0.69528E-01   0.69528E-01   0.69528E-01   0.75973E-01   0.27773E-01   0.36520E-01   0.36520E-01   0.36520E-01   0.36261E-02
   0.61457E+01   0.80078E-01   0.80080E-01   0.80080E-01   0.85767E-01   0.30931E-01   0.42606E-01   0.42606E-01   0.42606E-01   0.39682E-02
   0.67603E+01   0.15005E+00   0.15005E+00   0.15006E+00   0.12487E+00   0.37919E-01   0.84925E-01   0.84937E-01   0.84944E-01   0.48557E-02
   0.73749E+01   0.64678E-01   0.64680E-01   0.64680E-01   0.75563E-01   0.24445E-01   0.35578E-01   0.35578E-01   0.35578E-01   0.26826E-02
   0.79894E+01   0.72011E-01   0.72018E-01   0.72021E-01   0.92880E-01   0.28742E-01   0.40909E-01   0.40907E-01   0.40909E-01   0.29245E-02
   0.86040E+01   0.11865E+00   0.11866E+00   0.11865E+00   0.15300E+00   0.45882E-01   0.69596E-01   0.69594E-01   0.69598E-01   0.39644E-02
   0.92186E+01   0.10544E+00   0.10544E+00   0.10543E+00   0.10668E+00   0.39762E-01   0.58229E-01   0.58227E-01   0.58225E-01   0.34326E-02
   0.98331E+01   0.89882E-01   0.89886E-01   0.89887E-01   0.78110E-01   0.30365E-01   0.49008E-01   0.49008E-01   0.49008E-01   0.19564E-02
   0.10448E+02   0.18399E+00   0.18384E+00   0.18384E+00   0.11953E+00   0.63160E-01   0.94476E-01   0.94450E-01   0.94474E-01   0.61378E-02
   0.11062E+02   0.11727E+00   0.11727E+00   0.11728E+00   0.90831E-01   0.30014E-01   0.65251E-01   0.65254E-01   0.65252E-01   0.21830E-02
   0.11677E+02   0.17409E+00   0.17382E+00   0.17383E+00   0.21320E+00   0.40760E-01   0.11348E+00   0.11355E+00   0.11350E+00   0.29311E-02
   0.12291E+02   0.16724E+00   0.16702E+00   0.16707E+00   0.22465E+00   0.25705E-01   0.12942E+00   0.12946E+00   0.12937E+00   0.26219E-02
   0.12906E+02   0.59967E-01   0.59992E-01   0.59975E-01   0.53273E-01   0.86916E-02   0.36905E-01   0.36912E-01   0.36941E-01   0.16002E-02
   0.13521E+02   0.43990E-01   0.43972E-01   0.43990E-01   0.34013E-01   0.65547E-02   0.25432E-01   0.25436E-01   0.25403E-01   0.17804E-02
   0.14135E+02   0.55711E-01   0.55706E-01   0.55714E-01   0.46598E-01   0.87120E-02   0.33113E-01   0.33113E-01   0.33094E-01   0.24278E-02
   0.14750E+02   0.60136E-01   0.60182E-01   0.60151E-01   0.53970E-01   0.99136E-02   0.36518E-01   0.36505E-01   0.36544E-01   0.26100E-02
   0.15364E+02   0.77310E-01   0.77267E-01   0.77301E-01   0.72867E-01   0.12969E-01   0.47030E-01   0.47038E-01   0.46989E-01   0.31591E-02
   0.15979E+02   0.92556E-01   0.92584E-01   0.92555E-01   0.91084E-01   0.17276E-01   0.54006E-01   0.53998E-01   0.54007E-01   0.33546E-02
   0.16593E+02   0.95857E-01   0.95861E-01   0.95831E-01   0.12819E+00   0.20606E-01   0.57696E-01   0.57702E-01   0.57679E-01   0.38057E-02
   0.17208E+02   0.44092E-01   0.44099E-01   0.44087E-01   0.60264E-01   0.11734E-01   0.25509E-01   0.25526E-01   0.25534E-01   0.18115E-02
   0.17823E+02   0.54025E-01   0.54026E-01   0.54025E-01   0.84592E-01   0.14466E-01   0.30652E-01   0.30660E-01   0.30662E-01   0.16427E-02
   0.18437E+02   0.51745E-01   0.51747E-01   0.51743E-01   0.69665E-01   0.10034E-01   0.28950E-01   0.28956E-01   0.28955E-01   0.16195E-02
   0.19052E+02   0.45880E-01   0.45883E-01   0.45879E-01   0.56104E-01   0.69910E-02   0.24940E-01   0.24955E-01   0.24948E-01   0.13976E-02
   0.19666E+02   0.28330E-01   0.28330E-01   0.28326E-01   0.39077E-01   0.49905E-02   0.15847E-01   0.15855E-01   0.15850E-01   0.88464E-03
   0.20281E+02   0.77011E-01   0.76983E-01   0.76955E-01   0.89589E-01   0.23663E-01   0.31959E-01   0.31987E-01   0.31970E-01   0.32068E-02
   0.20895E+02   0.14328E+00   0.14323E+00   0.14318E+00   0.15476E+00   0.41444E-01   0.63881E-01   0.63959E-01   0.63919E-01   0.59505E-02
   0.21510E+02   0.17906E+00   0.17900E+00   0.17893E+00   0.16805E+00   0.39977E-01   0.77372E-01   0.77483E-01   0.77416E-01   0.99188E-02
   0.22125E+02   0.12599E+00   0.12593E+00   0.12586E+00   0.88878E-01   0.18661E-01   0.45858E-01   0.45944E-01   0.45906E-01   0.91355E-02
   0.22739E+02   0.52651E-01   0.52640E-01   0.52641E-01   0.36903E-01   0.91138E-02   0.24150E-01   0.24173E-01   0.24161E-01   0.44689E-02
   0.23354E+02   0.18356E-01   0.18350E-01   0.18350E-01   0.17918E-01   0.54131E-02   0.13386E-01   0.13396E-01   0.13392E-01   0.21395E-02
   0.23968E+02   0.52216E-01   0.52227E-01   0.52241E-01   0.59742E-01   0.53235E-01   0.18223E+00   0.18261E+00   0.18232E+00   0.26582E-02
   0.24583E+02   0.12373E+00   0.12368E+00   0.12386E+00   0.14607E+00   0.81841E-01   0.32146E+00   0.32268E+00   0.32212E+00   0.61520E-02
   0.25197E+02   0.10108E+00   0.10096E+00   0.10103E+00   0.93134E-01   0.51261E-01   0.22700E+00   0.22708E+00   0.22714E+00   0.10034E-01
   0.25812E+02   0.17233E+00   0.17223E+00   0.17232E+00   0.67761E-01   0.36677E-01   0.29004E+00   0.29021E+00   0.28990E+00   0.25834E-01
   0.26427E+02   0.63168E-01   0.63119E-01   0.63180E-01   0.30098E-01   0.83788E-02   0.97278E-01   0.97071E-01   0.97178E-01   0.61202E-02
   0.27041E+02   0.15492E+00   0.15520E+00   0.15523E+00   0.64908E-01   0.39375E-01   0.32591E+00   0.32552E+00   0.32548E+00   0.16186E-01
   0.27656E+02   0.21827E+00   0.21848E+00   0.21877E+00   0.13446E+00   0.28209E-01   0.43201E+00   0.43160E+00   0.43113E+00   0.19990E-01
   0.28270E+02   0.10556E+00   0.10560E+00   0.10563E+00   0.27463E-01   0.15070E-01   0.16995E+00   0.16988E+00   0.17010E+00   0.30012E-02
   0.28885E+02   0.64164E-01   0.64166E-01   0.64124E-01   0.86123E-02   0.81089E-03   0.10327E+00   0.10314E+00   0.10338E+00   0.72249E-03
   0.29499E+02   0.81085E-01   0.81112E-01   0.81096E-01   0.91395E-01   0.65215E-02   0.78158E-01   0.78000E-01   0.78191E-01   0.80849E-02
   0.30114E+02   0.93216E-01   0.93249E-01   0.93105E-01   0.62980E+00   0.57435E-02   0.56972E+00   0.57067E+00   0.56881E+00   0.54423E-01
   0.30729E+02   0.31142E-01   0.31211E-01   0.31163E-01   0.12272E+00   0.86817E-03   0.10827E+00   0.10859E+00   0.10800E+00   0.12185E-01
   0.31343E+02   0.59045E-01   0.59066E-01   0.59046E-01   0.10320E+00   0.10302E-02   0.88703E-01   0.88862E-01   0.88626E-01   0.11131E-01
   0.31958E+02   0.50768E-01   0.50782E-01   0.50765E-01   0.51329E-01   0.12144E-02   0.46276E-01   0.46325E-01   0.46259E-01   0.49608E-02
   0.32572E+02   0.23519E-01   0.23523E-01   0.23517E-01   0.15157E-01   0.55181E-03   0.14816E-01   0.14826E-01   0.14813E-01   0.12590E-02
   0.33187E+02   0.88453E-02   0.88463E-02   0.88439E-02   0.42043E-02   0.14602E-03   0.44742E-02   0.44765E-02   0.44740E-02   0.20702E-03
   0.33801E+02   0.00000E+00   0.00000E+00   0.00000E+00   0.00000E+00   0.00000E+00   0.00000E+00   0.00000E+00   0.00000E+00   0.00000E+00
   0.34416E+02   0.00000E+00   0.00000E+00   0.00000E+00   0.00000E+00   0.00000E+00   0.00000E+00   0.00000E+00   0.00000E+00   0.00000E+00
   0.35031E+02   0.00000E+00   0.00000E+00   0.00000E+00   0.00000E+00   0.00000E+00   0.00000E+00   0.00000E+00   0.00000E+00   0.00000E+00
   0.35645E+02   0.00000E+00   0.00000E+00   0.00000E+00   0.00000E+00   0.00000E+00   0.00000E+00   0.00000E+00   0.00000E+00   0.00000E+00
   0.36260E+02   0.00000E+00   0.00000E+00   0.00000E+00   0.00000E+00   0.00000E+00   0.00000E+00   0.00000E+00   0.00000E+00   0.00000E+00
   0.36874E+02   0.00000E+00   0.00000E+00   0.00000E+00   0.00000E+00   0.00000E+00   0.00000E+00   0.00000E+00   0.00000E+00   0.00000E+00
   0.37489E+02   0.00000E+00   0.00000E+00   0.00000E+00   0.00000E+00   0.00000E+00   0.00000E+00   0.00000E+00   0.00000E+00   0.00000E+00
   0.38103E+02   0.00000E+00   0.00000E+00   0.00000E+00   0.00000E+00   0.00000E+00   0.00000E+00   0.00000E+00   0.00000E+00   0.00000E+00
   0.38718E+02   0.00000E+00   0.00000E+00   0.00000E+00   0.00000E+00   0.00000E+00   0.00000E+00   0.00000E+00   0.00000E+00   0.00000E+00
   0.39333E+02   0.00000E+00   0.00000E+00   0.00000E+00   0.00000E+00   0.00000E+00   0.00000E+00   0.00000E+00   0.00000E+00   0.00000E+00
   0.39947E+02   0.00000E+00   0.00000E+00   0.00000E+00   0.00000E+00   0.00000E+00   0.00000E+00   0.00000E+00   0.00000E+00   0.00000E+00
   0.40562E+02   0.00000E+00   0.00000E+00   0.00000E+00   0.00000E+00   0.00000E+00   0.00000E+00   0.00000E+00   0.00000E+00   0.00000E+00
   0.41176E+02   0.00000E+00   0.00000E+00   0.00000E+00   0.00000E+00   0.00000E+00   0.00000E+00   0.00000E+00   0.00000E+00   0.00000E+00
   0.41791E+02   0.00000E+00   0.00000E+00   0.00000E+00   0.00000E+00   0.00000E+00   0.00000E+00   0.00000E+00   0.00000E+00   0.00000E+00
   0.42405E+02   0.00000E+00   0.00000E+00   0.00000E+00   0.00000E+00   0.00000E+00   0.00000E+00   0.00000E+00   0.00000E+00   0.00000E+00
   0.43020E+02   0.60723E-06   0.60015E-06   0.60537E-06   0.37367E-05   0.11385E-04   0.20198E-06   0.20204E-06   0.20208E-06   0.82028E-04
   0.43635E+02   0.14948E-01   0.14865E-01   0.14910E-01   0.69815E-01   0.21512E+00   0.62044E-02   0.61974E-02   0.62361E-02   0.11479E+01
   0.44249E+02   0.16536E-01   0.16552E-01   0.16537E-01   0.25369E-01   0.85574E-01   0.87288E-02   0.87394E-02   0.87239E-02   0.83840E+00
   0.44864E+02   0.18578E-01   0.18586E-01   0.18559E-01   0.18534E-01   0.81541E-01   0.94384E-02   0.94527E-02   0.94372E-02   0.85832E+00
   0.45478E+02   0.10853E-01   0.10885E-01   0.10881E-01   0.43931E-02   0.39708E-01   0.68978E-02   0.68838E-02   0.68876E-02   0.59340E+00
   0.46093E+02   0.10180E-01   0.10191E-01   0.10183E-01   0.28169E-02   0.41334E-01   0.72841E-02   0.72846E-02   0.72802E-02   0.77559E+00
   0.46707E+02   0.23700E-03   0.23557E-03   0.24064E-03   0.22224E-04   0.20014E-02   0.83496E-04   0.83659E-04   0.83332E-04   0.84702E-02
   0.47322E+02   0.24296E-01   0.24315E-01   0.24190E-01   0.13405E-02   0.27022E+00   0.29253E-02   0.29250E-02   0.29247E-02   0.34331E-01
   0.47937E+02   0.20241E-01   0.20244E-01   0.20219E-01   0.11489E-02   0.21992E+00   0.23791E-02   0.23793E-02   0.23792E-02   0.29293E-01
   0.48551E+02   0.26687E-01   0.26689E-01   0.26675E-01   0.14282E-02   0.28436E+00   0.31141E-02   0.31146E-02   0.31145E-02   0.45282E-01
   0.49166E+02   0.32174E-01   0.32174E-01   0.32185E-01   0.15746E-02   0.33588E+00   0.37613E-02   0.37608E-02   0.37604E-02   0.65797E-01
   0.49780E+02   0.27662E-01   0.27662E-01   0.27602E-01   0.13762E-02   0.29913E+00   0.31867E-02   0.31881E-02   0.31883E-02   0.44838E-01
   0.50395E+02   0.37279E-01   0.37273E-01   0.37310E-01   0.19347E-02   0.40901E+00   0.41641E-02   0.41647E-02   0.41649E-02   0.64025E-01
   0.51009E+02   0.33463E-01   0.33467E-01   0.33439E-01   0.13056E-02   0.39437E+00   0.42428E-02   0.42435E-02   0.42442E-02   0.27214E-01
   0.51624E+02   0.15706E-01   0.15706E-01   0.15720E-01   0.49206E-03   0.19505E+00   0.22509E-02   0.22495E-02   0.22498E-02   0.59369E-02
   0.52239E+02   0.21289E-04   0.21288E-04   0.21318E-04   0.19371E-03   0.11259E-02   0.53218E-05   0.53223E-05   0.53232E-05   0.37157E-03
   0.52853E+02   0.13219E-02   0.13217E-02   0.13229E-02   0.16629E-01   0.91095E-01   0.43364E-03   0.43362E-03   0.43361E-03   0.29779E-01
   0.53468E+02   0.26185E-02   0.26181E-02   0.26202E-02   0.29085E-01   0.16747E+00   0.10301E-02   0.10301E-02   0.10298E-02   0.42368E-01
   0.54082E+02   0.58779E-02   0.58768E-02   0.58825E-02   0.58853E-01   0.35643E+00   0.25214E-02   0.25217E-02   0.25212E-02   0.69542E-01
   0.54697E+02   0.56148E-02   0.56136E-02   0.56201E-02   0.55588E-01   0.34173E+00   0.26573E-02   0.26579E-02   0.26573E-02   0.56260E-01
   0.55311E+02   0.21995E-02   0.21989E-02   0.22026E-02   0.21649E-01   0.13389E+00   0.11253E-02   0.11258E-02   0.11255E-02   0.19507E-01
   0.55926E+02   0.12452E-03   0.12450E-03   0.12468E-03   0.12215E-02   0.76422E-02   0.66663E-04   0.66684E-04   0.66667E-04   0.98445E-03
   0.56541E+02   0.00000E+00   0.00000E+00   0.00000E+00   0.00000E+00   0.00000E+00   0.00000E+00   0.00000E+00   0.00000E+00   0.00000E+00
   0.57155E+02   0.00000E+00   0.00000E+00   0.00000E+00   0.00000E+00   0.00000E+00   0.00000E+00   0.00000E+00   0.00000E+00   0.00000E+00
   0.57770E+02   0.00000E+00   0.00000E+00   0.00000E+00   0.00000E+00   0.00000E+00   0.00000E+00   0.00000E+00   0.00000E+00   0.00000E+00
   0.58384E+02   0.00000E+00   0.00000E+00   0.00000E+00   0.00000E+00   0.00000E+00   0.00000E+00   0.00000E+00   0.00000E+00   0.00000E+00
   0.58999E+02   0.00000E+00   0.00000E+00   0.00000E+00   0.00000E+00   0.00000E+00   0.00000E+00   0.00000E+00   0.00000E+00   0.00000E+00
   0.59613E+02   0.00000E+00   0.00000E+00   0.00000E+00   0.00000E+00   0.00000E+00   0.00000E+00   0.00000E+00   0.00000E+00   0.00000E+00
   0.60228E+02   0.00000E+00   0.00000E+00   0.00000E+00   0.00000E+00   0.00000E+00   0.00000E+00   0.00000E+00   0.00000E+00   0.00000E+00
   0.60843E+02   0.00000E+00   0.00000E+00   0.00000E+00   0.00000E+00   0.00000E+00   0.00000E+00   0.00000E+00   0.00000E+00   0.00000E+00
   0.61457E+02   0.00000E+00   0.00000E+00   0.00000E+00   0.00000E+00   0.00000E+00   0.00000E+00   0.00000E+00   0.00000E+00   0.00000E+00
