  72   72
1 1
     8.041677698179742     1.468872967165173    -1.469329362160040
     1.468882046040501     6.503876638915555    -0.892410966477576
    -1.469340674893110    -0.892412527570448     6.503836476606661
1 2
    -0.388627987576189    -0.003153826894082     0.003148931099780
    -0.003149188896174    -0.002074466209736    -0.010587429168903
     0.003147080860757    -0.010582416778786    -0.002074490066364
1 3
     0.000000000000000     0.000000000000000    -0.000000000000000
     0.000000000000000     0.000000000000000    -0.000000000000000
    -0.000000000000000    -0.000000000000000     0.000000000000000
1 4
     0.000000000000000     0.000000000000000    -0.000000000000000
     0.000000000000000     0.000000000000000    -0.000000000000000
    -0.000000000000000    -0.000000000000000     0.000000000000000
1 5
     0.000000000000000     0.000000000000000    -0.000000000000000
     0.000000000000000     0.000000000000000    -0.000000000000000
    -0.000000000000000    -0.000000000000000     0.000000000000000
1 6
     0.000000000000000     0.000000000000000    -0.000000000000000
     0.000000000000000     0.000000000000000    -0.000000000000000
    -0.000000000000000    -0.000000000000000     0.000000000000000
1 7
     0.000000000000000     0.000000000000000    -0.000000000000000
     0.000000000000000     0.000000000000000    -0.000000000000000
    -0.000000000000000    -0.000000000000000     0.000000000000000
1 8
     0.000000000000000     0.000000000000000    -0.000000000000000
     0.000000000000000     0.000000000000000    -0.000000000000000
    -0.000000000000000    -0.000000000000000     0.000000000000000
1 9
    -0.303540176652002    -0.635102848451510    -0.043542881497808
    -0.427650654731449    -0.303563352308326    -0.046042444213392
     0.046044907480245     0.043550185498633     0.318652667957000
1 10
    -0.281499800128444     0.388516298074206     0.029948175363864
     0.223458685408945    -0.162746362226598    -0.001560842366715
    -0.025885120411135    -0.005408293042720    -0.018275351049133
1 11
    -0.162743481375156     0.388530640321399     0.005412142667095
     0.223468951063590    -0.281502382036179     0.025883748031139
     0.001567773248551    -0.029954202957331    -0.018265695765028
1 12
    -0.035259787875525    -0.231220071873427    -0.023884124661065
    -0.017413540460412    -0.035249930143608    -0.000781339726872
     0.000780720095083     0.023871900770365     0.008703931828891
1 13
    -0.000000000000000    -0.000000000000000    -0.000000000000000
    -0.000000000000000    -0.000000000000000    -0.000000000000000
     0.000000000000000     0.000000000000000     0.000000000000000
1 14
    -0.000000000000000    -0.000000000000000    -0.000000000000000
    -0.000000000000000    -0.000000000000000    -0.000000000000000
     0.000000000000000     0.000000000000000     0.000000000000000
1 15
    -0.000000000000000    -0.000000000000000    -0.000000000000000
    -0.000000000000000    -0.000000000000000    -0.000000000000000
     0.000000000000000     0.000000000000000     0.000000000000000
1 16
    -0.000000000000000    -0.000000000000000    -0.000000000000000
    -0.000000000000000    -0.000000000000000    -0.000000000000000
     0.000000000000000     0.000000000000000     0.000000000000000
1 17
    -0.303537907498636     0.043530852591434     0.635114739957909
    -0.046052747865775     0.318677341967851     0.043570438796627
     0.427677929410770    -0.046027826864376    -0.303553086764478
1 18
    -0.281498323833621    -0.029933006934652    -0.388495060224718
     0.025887197429002    -0.018280173839804    -0.005400459697314
    -0.223446593346797    -0.001555576811990    -0.162738446321065
1 19
    -0.000000000000000     0.000000000000000     0.000000000000000
    -0.000000000000000     0.000000000000000     0.000000000000000
     0.000000000000000    -0.000000000000000     0.000000000000000
1 20
    -0.000000000000000     0.000000000000000     0.000000000000000
    -0.000000000000000     0.000000000000000     0.000000000000000
     0.000000000000000    -0.000000000000000     0.000000000000000
1 21
    -0.162736802835306    -0.005422221025592    -0.388528347999875
    -0.001571577133030    -0.018270601704843    -0.029956296885176
    -0.223462718718092     0.025868775502515    -0.281504487630396
1 22
    -0.035254910219994     0.023889066426692     0.231215133338901
    -0.000780470767352     0.008703743820112     0.023875211235868
     0.017413812625780    -0.000781505224290    -0.035256664763536
1 23
    -0.000000000000000     0.000000000000000     0.000000000000000
    -0.000000000000000     0.000000000000000     0.000000000000000
     0.000000000000000    -0.000000000000000     0.000000000000000
1 24
    -0.000000000000000     0.000000000000000     0.000000000000000
    -0.000000000000000     0.000000000000000     0.000000000000000
     0.000000000000000    -0.000000000000000     0.000000000000000
1 25
     0.353616843476285     0.004149796469067    -0.004140846132188
     0.065400729324266    -0.209209864621617     0.363901395942531
    -0.065403346310594     0.363926404124197    -0.209194732800723
1 26
     0.000000000000000    -0.000000000000000     0.000000000000000
     0.000000000000000    -0.000000000000000     0.000000000000000
    -0.000000000000000     0.000000000000000    -0.000000000000000
1 27
    -0.003221230810553     0.028236500534644     0.002290874547037
    -0.040726302520191    -0.241476653552748    -0.213216780556426
    -0.009776578182782    -0.210031387838822    -0.157046400422917
1 28
     0.000000000000000    -0.000000000000000     0.000000000000000
     0.000000000000000    -0.000000000000000     0.000000000000000
    -0.000000000000000     0.000000000000000    -0.000000000000000
1 29
    -0.003221613598559    -0.002293138449266    -0.028238177532117
     0.009776611186250    -0.157041385649137    -0.210031157838479
     0.040721326192978    -0.213206790643714    -0.241476462679236
1 30
     0.000000000000000    -0.000000000000000     0.000000000000000
     0.000000000000000    -0.000000000000000     0.000000000000000
    -0.000000000000000     0.000000000000000    -0.000000000000000
1 31
     0.000000000000000    -0.000000000000000     0.000000000000000
     0.000000000000000    -0.000000000000000     0.000000000000000
    -0.000000000000000     0.000000000000000    -0.000000000000000
1 32
     0.000000000000000    -0.000000000000000     0.000000000000000
     0.000000000000000    -0.000000000000000     0.000000000000000
    -0.000000000000000     0.000000000000000    -0.000000000000000
1 33
    -2.603377100622282    -1.706930492751202     1.706906009005617
    -1.681955038623578    -2.456616832836434     1.714593855693508
     1.681899387504034     1.714551461347989    -2.456549543460788
1 34
    -0.125278834941493     0.015951499844902    -0.015951543613068
    -0.065598613873714    -0.007916466920324     0.014164596189692
     0.065596544696383     0.014164978400506    -0.007915846652624
1 35
    -0.016123473434925    -0.055186815920618     0.025107095847952
     0.024098475683335    -0.140715519570382    -0.030838707557887
     0.028068354218642     0.066905750873329    -0.016267422496032
1 36
    -0.000000000000000     0.000000000000000    -0.000000000000000
    -0.000000000000000     0.000000000000000    -0.000000000000000
     0.000000000000000    -0.000000000000000    -0.000000000000000
1 37
    -0.016123596180528    -0.025103242445036     0.055190410180822
    -0.028064234907024    -0.016267249450553     0.066909782451715
    -0.024097367280474    -0.030835513993212    -0.140688425804846
1 38
    -0.000000000000000     0.000000000000000    -0.000000000000000
    -0.000000000000000     0.000000000000000    -0.000000000000000
     0.000000000000000    -0.000000000000000    -0.000000000000000
1 39
    -0.000000000000000     0.000000000000000    -0.000000000000000
    -0.000000000000000     0.000000000000000    -0.000000000000000
     0.000000000000000    -0.000000000000000    -0.000000000000000
1 40
    -0.000000000000000     0.000000000000000    -0.000000000000000
    -0.000000000000000     0.000000000000000    -0.000000000000000
     0.000000000000000    -0.000000000000000    -0.000000000000000
1 41
    -0.022515091439608    -0.048668569087855    -0.026186776832911
    -0.047520060531788    -0.022555414288412    -0.014607700503373
     0.024638014397395     0.021736092915493    -0.013140514902571
1 42
    -0.000000000000000     0.000000000000000     0.000000000000000
    -0.000000000000000     0.000000000000000     0.000000000000000
     0.000000000000000    -0.000000000000000     0.000000000000000
1 43
    -0.000000000000000     0.000000000000000     0.000000000000000
    -0.000000000000000     0.000000000000000     0.000000000000000
     0.000000000000000    -0.000000000000000     0.000000000000000
1 44
    -0.000000000000000     0.000000000000000     0.000000000000000
    -0.000000000000000     0.000000000000000     0.000000000000000
     0.000000000000000    -0.000000000000000     0.000000000000000
1 45
    -1.097155748126518    -0.854178054310486    -0.810027374459832
    -0.870309133724252    -1.173630959317447    -0.843383333566128
    -0.619571526621248    -0.721227372945151    -0.650203481928167
1 46
    -0.006811774987335     0.001002582159196     0.002274156658065
     0.000106105273588    -0.006307750522448    -0.005606756812500
     0.002031201294177    -0.006745783222638    -0.001492502676624
1 47
    -0.000000000000000     0.000000000000000     0.000000000000000
    -0.000000000000000     0.000000000000000     0.000000000000000
     0.000000000000000    -0.000000000000000     0.000000000000000
1 48
    -0.000000000000000     0.000000000000000     0.000000000000000
    -0.000000000000000     0.000000000000000     0.000000000000000
     0.000000000000000    -0.000000000000000     0.000000000000000
1 49
    -0.377633637299950     0.480301394886406    -0.480314506379855
     0.644661272436681    -0.967325953157114     0.707886116323498
    -0.644657430021246     0.707870115360740    -0.967319399541924
1 50
    -0.047335553106964    -0.031942097352867     0.031940427354422
     0.031650673843047    -0.021570404278710     0.045719797236936
    -0.031655309634552     0.045721533286574    -0.021568638232498
1 51
     0.000000000000000     0.000000000000000    -0.000000000000000
     0.000000000000000     0.000000000000000    -0.000000000000000
    -0.000000000000000    -0.000000000000000     0.000000000000000
1 52
     0.000000000000000     0.000000000000000    -0.000000000000000
     0.000000000000000     0.000000000000000    -0.000000000000000
    -0.000000000000000    -0.000000000000000     0.000000000000000
1 53
     0.000000000000000     0.000000000000000    -0.000000000000000
     0.000000000000000     0.000000000000000    -0.000000000000000
    -0.000000000000000    -0.000000000000000     0.000000000000000
1 54
     0.000000000000000     0.000000000000000    -0.000000000000000
     0.000000000000000     0.000000000000000    -0.000000000000000
    -0.000000000000000    -0.000000000000000     0.000000000000000
1 55
     0.000000000000000     0.000000000000000    -0.000000000000000
     0.000000000000000     0.000000000000000    -0.000000000000000
    -0.000000000000000    -0.000000000000000     0.000000000000000
1 56
     0.000000000000000     0.000000000000000    -0.000000000000000
     0.000000000000000     0.000000000000000    -0.000000000000000
    -0.000000000000000    -0.000000000000000     0.000000000000000
1 57
    -0.022513747594763     0.026181969859995     0.048667080624521
    -0.024642854955679    -0.013135697268905     0.021738225897933
     0.047520739839420    -0.014607917345886    -0.022550782389775
1 58
    -0.000000000000000    -0.000000000000000    -0.000000000000000
    -0.000000000000000    -0.000000000000000    -0.000000000000000
     0.000000000000000     0.000000000000000     0.000000000000000
1 59
    -1.097364189848584     0.810252755277041     0.854433048701642
     0.619806232672701    -0.650385422879433    -0.721491462542114
     0.870555846843487    -0.843616995298034    -1.173874705837855
1 60
    -0.006811259249805    -0.002274104407969    -0.001002988318407
    -0.002031151934621    -0.001492485540617    -0.006744774433645
    -0.000106053772627    -0.005606739942410    -0.006307746688303
1 61
    -0.000000000000000    -0.000000000000000    -0.000000000000000
    -0.000000000000000    -0.000000000000000    -0.000000000000000
     0.000000000000000     0.000000000000000     0.000000000000000
1 62
    -0.000000000000000    -0.000000000000000    -0.000000000000000
    -0.000000000000000    -0.000000000000000    -0.000000000000000
     0.000000000000000     0.000000000000000     0.000000000000000
1 63
    -0.000000000000000    -0.000000000000000    -0.000000000000000
    -0.000000000000000    -0.000000000000000    -0.000000000000000
     0.000000000000000     0.000000000000000     0.000000000000000
1 64
    -0.000000000000000    -0.000000000000000    -0.000000000000000
    -0.000000000000000    -0.000000000000000    -0.000000000000000
     0.000000000000000     0.000000000000000     0.000000000000000
1 65
    -0.118432012831566    -0.001691880828045     0.001689318204733
    -0.095519477757073     0.052378308494136     0.024814850610951
     0.095517355730699     0.024817361146858     0.052378297575015
1 66
    -0.876686839295734    -0.046327946558024     0.046328426711901
     0.015785087515656     0.023690335294244    -0.020390166012504
    -0.015776591485612    -0.020389815385288     0.023691991501055
1 67
     0.000000000000000    -0.000000000000000     0.000000000000000
     0.000000000000000    -0.000000000000000     0.000000000000000
    -0.000000000000000     0.000000000000000    -0.000000000000000
1 68
     0.000000000000000    -0.000000000000000     0.000000000000000
     0.000000000000000    -0.000000000000000     0.000000000000000
    -0.000000000000000     0.000000000000000    -0.000000000000000
1 69
     0.000000000000000    -0.000000000000000     0.000000000000000
     0.000000000000000    -0.000000000000000     0.000000000000000
    -0.000000000000000     0.000000000000000    -0.000000000000000
1 70
     0.000000000000000    -0.000000000000000     0.000000000000000
     0.000000000000000    -0.000000000000000     0.000000000000000
    -0.000000000000000     0.000000000000000    -0.000000000000000
1 71
     0.000000000000000    -0.000000000000000     0.000000000000000
     0.000000000000000    -0.000000000000000     0.000000000000000
    -0.000000000000000     0.000000000000000    -0.000000000000000
1 72
     0.000000000000000    -0.000000000000000     0.000000000000000
     0.000000000000000    -0.000000000000000     0.000000000000000
    -0.000000000000000     0.000000000000000    -0.000000000000000
2 1
    -0.388627987576189    -0.003153826894082     0.003148931099780
    -0.003149188896174    -0.002074466209736    -0.010587429168903
     0.003147080860757    -0.010582416778786    -0.002074490066364
2 2
     8.041677698179740     1.468872967165173    -1.469329362160040
     1.468882046040501     6.503876638915558    -0.892410966477576
    -1.469340674893109    -0.892412527570448     6.503836476606660
2 3
     0.000000000000000     0.000000000000000    -0.000000000000000
     0.000000000000000     0.000000000000000    -0.000000000000000
    -0.000000000000000    -0.000000000000000     0.000000000000000
2 4
     0.000000000000000     0.000000000000000    -0.000000000000000
     0.000000000000000     0.000000000000000    -0.000000000000000
    -0.000000000000000    -0.000000000000000     0.000000000000000
2 5
     0.000000000000000     0.000000000000000    -0.000000000000000
     0.000000000000000     0.000000000000000    -0.000000000000000
    -0.000000000000000    -0.000000000000000     0.000000000000000
2 6
     0.000000000000000     0.000000000000000    -0.000000000000000
     0.000000000000000     0.000000000000000    -0.000000000000000
    -0.000000000000000    -0.000000000000000     0.000000000000000
2 7
     0.000000000000000     0.000000000000000    -0.000000000000000
     0.000000000000000     0.000000000000000    -0.000000000000000
    -0.000000000000000    -0.000000000000000     0.000000000000000
2 8
     0.000000000000000     0.000000000000000    -0.000000000000000
     0.000000000000000     0.000000000000000    -0.000000000000000
    -0.000000000000000    -0.000000000000000     0.000000000000000
2 9
    -0.281499800128444     0.388516298074206     0.029948175363864
     0.223458685408945    -0.162746362226598    -0.001560842366715
    -0.025885120411134    -0.005408293042720    -0.018275351049133
2 10
    -0.303540176652002    -0.635102848451510    -0.043542881497808
    -0.427650654731449    -0.303563352308326    -0.046042444213392
     0.046044907480245     0.043550185498633     0.318652667957000
2 11
    -0.035259787875525    -0.231220071873427    -0.023884124661065
    -0.017413540460412    -0.035249930143608    -0.000781339726872
     0.000780720095083     0.023871900770365     0.008703931828891
2 12
    -0.162743481375156     0.388530640321399     0.005412142667095
     0.223468951063590    -0.281502382036179     0.025883748031139
     0.001567773248551    -0.029954202957331    -0.018265695765028
2 13
    -0.000000000000000    -0.000000000000000    -0.000000000000000
    -0.000000000000000    -0.000000000000000    -0.000000000000000
     0.000000000000000     0.000000000000000     0.000000000000000
2 14
    -0.000000000000000    -0.000000000000000    -0.000000000000000
    -0.000000000000000    -0.000000000000000    -0.000000000000000
     0.000000000000000     0.000000000000000     0.000000000000000
2 15
    -0.000000000000000    -0.000000000000000    -0.000000000000000
    -0.000000000000000    -0.000000000000000    -0.000000000000000
     0.000000000000000     0.000000000000000     0.000000000000000
2 16
    -0.000000000000000    -0.000000000000000    -0.000000000000000
    -0.000000000000000    -0.000000000000000    -0.000000000000000
     0.000000000000000     0.000000000000000     0.000000000000000
2 17
    -0.281498323833621    -0.029933006934652    -0.388495060224718
     0.025887197429002    -0.018280173839804    -0.005400459697314
    -0.223446593346797    -0.001555576811990    -0.162738446321065
2 18
    -0.303537907498636     0.043530852591434     0.635114739957909
    -0.046052747865775     0.318677341967851     0.043570438796627
     0.427677929410770    -0.046027826864376    -0.303553086764478
2 19
    -0.000000000000000     0.000000000000000     0.000000000000000
    -0.000000000000000     0.000000000000000     0.000000000000000
     0.000000000000000    -0.000000000000000     0.000000000000000
2 20
    -0.000000000000000     0.000000000000000     0.000000000000000
    -0.000000000000000     0.000000000000000     0.000000000000000
     0.000000000000000    -0.000000000000000     0.000000000000000
2 21
    -0.035254910219994     0.023889066426692     0.231215133338901
    -0.000780470767352     0.008703743820112     0.023875211235868
     0.017413812625780    -0.000781505224290    -0.035256664763536
2 22
    -0.162736802835306    -0.005422221025592    -0.388528347999875
    -0.001571577133030    -0.018270601704843    -0.029956296885176
    -0.223462718718092     0.025868775502515    -0.281504487630396
2 23
    -0.000000000000000     0.000000000000000     0.000000000000000
    -0.000000000000000     0.000000000000000     0.000000000000000
     0.000000000000000    -0.000000000000000     0.000000000000000
2 24
    -0.000000000000000     0.000000000000000     0.000000000000000
    -0.000000000000000     0.000000000000000     0.000000000000000
     0.000000000000000    -0.000000000000000     0.000000000000000
2 25
     0.000000000000000    -0.000000000000000     0.000000000000000
     0.000000000000000    -0.000000000000000     0.000000000000000
    -0.000000000000000     0.000000000000000    -0.000000000000000
2 26
     0.353616843476285     0.004149796469067    -0.004140846132188
     0.065400729324266    -0.209209864621617     0.363901395942531
    -0.065403346310594     0.363926404124197    -0.209194732800723
2 27
     0.000000000000000    -0.000000000000000     0.000000000000000
     0.000000000000000    -0.000000000000000     0.000000000000000
    -0.000000000000000     0.000000000000000    -0.000000000000000
2 28
    -0.003221230810553     0.028236500534644     0.002290874547037
    -0.040726302520191    -0.241476653552748    -0.213216780556426
    -0.009776578182782    -0.210031387838822    -0.157046400422917
2 29
     0.000000000000000    -0.000000000000000     0.000000000000000
     0.000000000000000    -0.000000000000000     0.000000000000000
    -0.000000000000000     0.000000000000000    -0.000000000000000
2 30
    -0.003221613598559    -0.002293138449266    -0.028238177532117
     0.009776611186250    -0.157041385649137    -0.210031157838479
     0.040721326192978    -0.213206790643714    -0.241476462679236
2 31
     0.000000000000000    -0.000000000000000     0.000000000000000
     0.000000000000000    -0.000000000000000     0.000000000000000
    -0.000000000000000     0.000000000000000    -0.000000000000000
2 32
     0.000000000000000    -0.000000000000000     0.000000000000000
     0.000000000000000    -0.000000000000000     0.000000000000000
    -0.000000000000000     0.000000000000000    -0.000000000000000
2 33
    -0.125278834941493     0.015951499844902    -0.015951543613068
    -0.065598613873714    -0.007916466920324     0.014164596189692
     0.065596544696383     0.014164978400506    -0.007915846652624
2 34
    -2.603377100622282    -1.706930492751202     1.706906009005617
    -1.681955038623578    -2.456616832836435     1.714593855693508
     1.681899387504034     1.714551461347989    -2.456549543460788
2 35
    -0.000000000000000     0.000000000000000    -0.000000000000000
    -0.000000000000000     0.000000000000000    -0.000000000000000
     0.000000000000000    -0.000000000000000    -0.000000000000000
2 36
    -0.016123473434925    -0.055186815920618     0.025107095847952
     0.024098475683335    -0.140715519570382    -0.030838707557887
     0.028068354218642     0.066905750873329    -0.016267422496032
2 37
    -0.000000000000000     0.000000000000000    -0.000000000000000
    -0.000000000000000     0.000000000000000    -0.000000000000000
     0.000000000000000    -0.000000000000000    -0.000000000000000
2 38
    -0.016123596180528    -0.025103242445036     0.055190410180822
    -0.028064234907024    -0.016267249450553     0.066909782451715
    -0.024097367280474    -0.030835513993212    -0.140688425804846
2 39
    -0.000000000000000     0.000000000000000    -0.000000000000000
    -0.000000000000000     0.000000000000000    -0.000000000000000
     0.000000000000000    -0.000000000000000    -0.000000000000000
2 40
    -0.000000000000000     0.000000000000000    -0.000000000000000
    -0.000000000000000     0.000000000000000    -0.000000000000000
     0.000000000000000    -0.000000000000000    -0.000000000000000
2 41
    -0.000000000000000     0.000000000000000     0.000000000000000
    -0.000000000000000     0.000000000000000     0.000000000000000
     0.000000000000000    -0.000000000000000     0.000000000000000
2 42
    -0.022515091439608    -0.048668569087855    -0.026186776832911
    -0.047520060531788    -0.022555414288412    -0.014607700503373
     0.024638014397395     0.021736092915493    -0.013140514902571
2 43
    -0.000000000000000     0.000000000000000     0.000000000000000
    -0.000000000000000     0.000000000000000     0.000000000000000
     0.000000000000000    -0.000000000000000     0.000000000000000
2 44
    -0.000000000000000     0.000000000000000     0.000000000000000
    -0.000000000000000     0.000000000000000     0.000000000000000
     0.000000000000000    -0.000000000000000     0.000000000000000
2 45
    -0.006811774987335     0.001002582159196     0.002274156658065
     0.000106105273588    -0.006307750522448    -0.005606756812500
     0.002031201294177    -0.006745783222638    -0.001492502676624
2 46
    -1.097155748126518    -0.854178054310486    -0.810027374459832
    -0.870309133724252    -1.173630959317448    -0.843383333566128
    -0.619571526621248    -0.721227372945151    -0.650203481928167
2 47
    -0.000000000000000     0.000000000000000     0.000000000000000
    -0.000000000000000     0.000000000000000     0.000000000000000
     0.000000000000000    -0.000000000000000     0.000000000000000
2 48
    -0.000000000000000     0.000000000000000     0.000000000000000
    -0.000000000000000     0.000000000000000     0.000000000000000
     0.000000000000000    -0.000000000000000     0.000000000000000
2 49
    -0.047335553106964    -0.031942097352867     0.031940427354422
     0.031650673843047    -0.021570404278710     0.045719797236936
    -0.031655309634552     0.045721533286574    -0.021568638232498
2 50
    -0.377633637299950     0.480301394886406    -0.480314506379855
     0.644661272436681    -0.967325953157115     0.707886116323498
    -0.644657430021246     0.707870115360740    -0.967319399541924
2 51
     0.000000000000000     0.000000000000000    -0.000000000000000
     0.000000000000000     0.000000000000000    -0.000000000000000
    -0.000000000000000    -0.000000000000000     0.000000000000000
2 52
     0.000000000000000     0.000000000000000    -0.000000000000000
     0.000000000000000     0.000000000000000    -0.000000000000000
    -0.000000000000000    -0.000000000000000     0.000000000000000
2 53
     0.000000000000000     0.000000000000000    -0.000000000000000
     0.000000000000000     0.000000000000000    -0.000000000000000
    -0.000000000000000    -0.000000000000000     0.000000000000000
2 54
     0.000000000000000     0.000000000000000    -0.000000000000000
     0.000000000000000     0.000000000000000    -0.000000000000000
    -0.000000000000000    -0.000000000000000     0.000000000000000
2 55
     0.000000000000000     0.000000000000000    -0.000000000000000
     0.000000000000000     0.000000000000000    -0.000000000000000
    -0.000000000000000    -0.000000000000000     0.000000000000000
2 56
     0.000000000000000     0.000000000000000    -0.000000000000000
     0.000000000000000     0.000000000000000    -0.000000000000000
    -0.000000000000000    -0.000000000000000     0.000000000000000
2 57
    -0.000000000000000    -0.000000000000000    -0.000000000000000
    -0.000000000000000    -0.000000000000000    -0.000000000000000
     0.000000000000000     0.000000000000000     0.000000000000000
2 58
    -0.022513747594763     0.026181969859995     0.048667080624521
    -0.024642854955679    -0.013135697268906     0.021738225897933
     0.047520739839420    -0.014607917345886    -0.022550782389775
2 59
    -0.006811259249805    -0.002274104407969    -0.001002988318407
    -0.002031151934621    -0.001492485540617    -0.006744774433645
    -0.000106053772627    -0.005606739942410    -0.006307746688303
2 60
    -1.097364189848584     0.810252755277041     0.854433048701642
     0.619806232672701    -0.650385422879433    -0.721491462542114
     0.870555846843487    -0.843616995298034    -1.173874705837855
2 61
    -0.000000000000000    -0.000000000000000    -0.000000000000000
    -0.000000000000000    -0.000000000000000    -0.000000000000000
     0.000000000000000     0.000000000000000     0.000000000000000
2 62
    -0.000000000000000    -0.000000000000000    -0.000000000000000
    -0.000000000000000    -0.000000000000000    -0.000000000000000
     0.000000000000000     0.000000000000000     0.000000000000000
2 63
    -0.000000000000000    -0.000000000000000    -0.000000000000000
    -0.000000000000000    -0.000000000000000    -0.000000000000000
     0.000000000000000     0.000000000000000     0.000000000000000
2 64
    -0.000000000000000    -0.000000000000000    -0.000000000000000
    -0.000000000000000    -0.000000000000000    -0.000000000000000
     0.000000000000000     0.000000000000000     0.000000000000000
2 65
    -0.876686839295734    -0.046327946558024     0.046328426711901
     0.015785087515656     0.023690335294244    -0.020390166012504
    -0.015776591485612    -0.020389815385288     0.023691991501055
2 66
    -0.118432012831566    -0.001691880828045     0.001689318204733
    -0.095519477757073     0.052378308494136     0.024814850610951
     0.095517355730699     0.024817361146858     0.052378297575015
2 67
     0.000000000000000    -0.000000000000000     0.000000000000000
     0.000000000000000    -0.000000000000000     0.000000000000000
    -0.000000000000000     0.000000000000000    -0.000000000000000
2 68
     0.000000000000000    -0.000000000000000     0.000000000000000
     0.000000000000000    -0.000000000000000     0.000000000000000
    -0.000000000000000     0.000000000000000    -0.000000000000000
2 69
     0.000000000000000    -0.000000000000000     0.000000000000000
     0.000000000000000    -0.000000000000000     0.000000000000000
    -0.000000000000000     0.000000000000000    -0.000000000000000
2 70
     0.000000000000000    -0.000000000000000     0.000000000000000
     0.000000000000000    -0.000000000000000     0.000000000000000
    -0.000000000000000     0.000000000000000    -0.000000000000000
2 71
     0.000000000000000    -0.000000000000000     0.000000000000000
     0.000000000000000    -0.000000000000000     0.000000000000000
    -0.000000000000000     0.000000000000000    -0.000000000000000
2 72
     0.000000000000000    -0.000000000000000     0.000000000000000
     0.000000000000000    -0.000000000000000     0.000000000000000
    -0.000000000000000     0.000000000000000    -0.000000000000000
3 1
     0.000000000000000     0.000000000000000    -0.000000000000000
     0.000000000000000     0.000000000000000    -0.000000000000000
    -0.000000000000000    -0.000000000000000     0.000000000000000
3 2
     0.000000000000000     0.000000000000000    -0.000000000000000
     0.000000000000000     0.000000000000000    -0.000000000000000