  369

    1
0.0000000000e+00 0.0000000000e+00 0.0000000000e+00
0.0000000000e+00 0.0000000000e+00 0.0000000000e+00
     1      1      1
 1  1  1     3.7178101284e-03
 1  1  2    -4.1975417428e-08
 1  1  3     4.7314649625e-08
 1  2  1    -4.1975417457e-08
 1  2  2    -2.9774472233e-03
 1  2  3     1.4798364557e-03
 1  3  1     4.7577712293e-08
 1  3  2     1.4798364559e-03
 1  3  3    -2.9419317954e-03
 2  1  1    -4.1975417456e-08
 2  1  2    -2.9774472232e-03
 2  1  3     1.4798364557e-03
 2  2  1    -2.9774472232e-03
 2  2  2    -4.8127756097e+00
 2  2  3     0.0000000000e+00
 2  3  1     1.4798364560e-03
 2  3  2     0.0000000000e+00
 2  3  3    -1.0972455353e-08
 3  1  1     4.7577712293e-08
 3  1  2     1.4798364557e-03
 3  1  3    -2.9419317954e-03
 3  2  1     1.4798364559e-03
 3  2  2     0.0000000000e+00
 3  2  3    -1.0972455353e-08
 3  3  1    -2.9419317954e-03
 3  3  2    -1.0972455353e-08
 3  3  3     4.8129378061e+00

    2
0.0000000000e+00 0.0000000000e+00 0.0000000000e+00
0.0000000000e+00 0.0000000000e+00 0.0000000000e+00
     1      1      5
 1  1  1    -2.2549649721e-02
 1  1  2     6.3173998944e-05
 1  1  3    -6.0053114951e-05
 1  2  1     5.9839738089e-06
 1  2  2     3.9325120828e-04
 1  2  3     8.6401592362e-02
 1  3  1    -9.6257172397e-06
 1  3  2     8.6398429035e-02
 1  3  3     3.8304745975e-04
 2  1  1     5.9839737994e-06
 2  1  2     3.9325120828e-04
 2  1  3     8.6401592364e-02
 2  2  1    -4.7002217924e-01
 2  2  2     2.7821717829e+00
 2  2  3    -9.7296921120e-01
 2  3  1    -8.6781472302e-02
 2  3  2    -1.4008841608e+00
 2  3  3     1.4008999051e+00
 3  1  1    -9.6257172397e-06
 3  1  2     8.6398429035e-02
 3  1  3     3.8304745975e-04
 3  2  1    -8.6781472298e-02
 3  2  2    -1.4008841608e+00
 3  2  3     1.4008999051e+00
 3  3  1    -4.7004612029e-01
 3  3  2     9.7297794826e-01
 3  3  3    -2.7822690438e+00

    3
0.0000000000e+00 0.0000000000e+00 0.0000000000e+00
0.0000000000e+00 0.0000000000e+00 0.0000000000e+00
     1      1      7
 1  1  1    -3.0503363991e-03
 1  1  2     9.2960161418e-06
 1  1  3    -7.8542612476e-06
 1  2  1     9.6530420974e-07
 1  2  2     7.7748805049e-04
 1  2  3     1.1153569056e-02
 1  3  1    -3.1721137128e-07
 1  3  2     1.1153931960e-02
 1  3  3     7.7669799323e-04
 2  1  1     9.6530420750e-07
 2  1  2     7.7748805049e-04
 2  1  3     1.1153569056e-02
 2  2  1     9.0711796113e-02
 2  2  2     1.7853962712e+00
 2  2  3    -1.7252895431e+00
 2  3  1    -1.1930621243e-02
 2  3  2    -1.6761947661e+00
 2  3  3     1.6762135998e+00
 3  1  1    -3.1721137128e-07
 3  1  2     1.1153931960e-02
 3  1  3     7.7669799323e-04
 3  2  1    -1.1930621242e-02
 3  2  2    -1.6761947661e+00
 3  2  3     1.6762135998e+00
 3  3  1     9.0713390385e-02
 3  3  2     1.7253097640e+00
 3  3  3    -1.7854557720e+00

    4
0.0000000000e+00 0.0000000000e+00 0.0000000000e+00
0.0000000000e+00 0.0000000000e+00 0.0000000000e+00
     1      1      9
 1  1  1    -9.5844533540e-04
 1  1  2     1.7470777330e-05
 1  1  3    -1.7427960717e-05
 1  2  1    -4.1873837442e-06
 1  2  2    -2.7390093288e-02
 1  2  3     3.1212794402e-02
 1  3  1     4.1408652417e-06
 1  3  2     3.1212838317e-02
 1  3  3    -2.7390742625e-02
 2  1  1    -4.1873837442e-06
 2  1  2    -2.7390093288e-02
 2  1  3     3.1212794402e-02
 2  2  1    -5.3400596843e-03
 2  2  2    -8.9001662811e-03
 2  2  3     7.5468867721e-03
 2  3  1    -3.8224034188e-03
 2  3  2     1.3464962596e-02
 2  3  3    -1.3465113890e-02
 3  1  1     4.1408652417e-06
 3  1  2     3.1212838317e-02
 3  1  3    -2.7390742625e-02
 3  2  1    -3.8224034186e-03
 3  2  2     1.3464962596e-02
 3  2  3    -1.3465113890e-02
 3  3  1    -5.3401696597e-03
 3  3  2    -7.5465495473e-03
 3  3  3     8.9000218297e-03

    5
0.0000000000e+00 0.0000000000e+00 0.0000000000e+00
6.0711660897e+00 1.3479049658e-02 -1.3434320867e-02
     1      1      9
 1  1  1     3.1454950663e-03
 1  1  2     1.6107499921e-05
 1  1  3    -1.6281631026e-05
 1  2  1    -9.0662151870e-06
 1  2  2    -4.7384890798e-02
 1  2  3     3.4992215894e-02
 1  3  1     8.5769757751e-06
 1  3  2     3.4992342106e-02
 1  3  3    -4.7385393184e-02
 2  1  1    -9.0662151867e-06
 2  1  2    -4.7384890798e-02
 2  1  3     3.4992215894e-02
 2  2  1    -6.9332888929e-02
 2  2  2    -1.9501543531e-02
 2  2  3    -7.3636850678e-02
 2  3  1     1.2392518740e-02
 2  3  2    -5.6589441375e-02
 2  3  3     5.6590076992e-02
 3  1  1     8.5769757751e-06
 3  1  2     3.4992342106e-02
 3  1  3    -4.7385393184e-02
 3  2  1     1.2392518740e-02
 3  2  2    -5.6589441375e-02
 3  2  3     5.6590076992e-02
 3  3  1    -6.9333758509e-02
 3  3  2     7.3637682732e-02
 3  3  3     1.9500988322e-02

    6
0.0000000000e+00 0.0000000000e+00 0.0000000000e+00
1.3479161250e-02 6.0711416680e+00 1.3506153561e-02
     1      1      8
 1  1  1     9.3587706822e-03
 1  1  2    -2.9420846490e+00
 1  1  3    -2.9522400959e+00
 1  2  1    -2.8698010378e+00
 1  2  2    -2.4833654549e-02
 1  2  3    -3.5428854957e-02
 1  3  1    -2.8573072508e+00
 1  3  2    -5.6010739730e-02
 1  3  3     8.6381031536e-02
 2  1  1    -2.8698010378e+00
 2  1  2    -2.4833654549e-02
 2  1  3    -3.5428854957e-02
 2  2  1     2.9759626447e-01
 2  2  2    -1.9671991960e+00
 2  2  3    -1.8646269783e+00
 2  3  1     3.4916669575e-02
 2  3  2    -1.6413253383e+00
 2  3  3    -4.7523252840e+00
 3  1  1    -2.8573072508e+00
 3  1  2    -5.6010739730e-02
 3  1  3     8.6381031536e-02
 3  2  1     3.4916669575e-02
 3  2  2    -1.6413253383e+00
 3  2  3    -4.7523252840e+00
 3  3  1     1.3919467721e-01
 3  3  2    -4.5962626768e+00
 3  3  3    -2.2282714679e+00

    7
0.0000000000e+00 0.0000000000e+00 0.0000000000e+00
1.3434176573e-02 -1.3505888462e-02 -6.0712097970e+00
     1      1      6
 1  1  1     9.4870302544e-03
 1  1  2     2.9522077362e+00
 1  1  3     2.9421165948e+00
 1  2  1     2.8572767164e+00
 1  2  2     8.6473642776e-02
 1  2  3    -5.5921753520e-02
 1  3  1     2.8698353793e+00
 1  3  2    -3.5336896624e-02
 1  3  3    -2.4764570087e-02
 2  1  1     2.8572767164e+00
 2  1  2     8.6473642776e-02
 2  1  3    -5.5921753520e-02
 2  2  1     1.3928424552e-01
 2  2  2     2.2281986195e+00
 2  2  3     4.5962112233e+00
 2  3  1     3.5006274617e-02
 2  3  2     4.7522725101e+00
 2  3  3     1.6413434620e+00
 3  1  1     2.8698353793e+00
 3  1  2    -3.5336896624e-02
 3  1  3    -2.4764570087e-02
 3  2  1     3.5006274617e-02
 3  2  2     4.7522725101e+00
 3  2  3     1.6413434620e+00
 3  3  1     2.9767371296e-01
 3  3  2     1.8646496276e+00
 3  3  3     1.9672673651e+00

    8
0.0000000000e+00 0.0000000000e+00 0.0000000000e+00
2.6913337823e-02 6.0576357796e+00 -6.0577036435e+00
     1      1      4
 1  1  1     0.0000000000e+00
 1  1  2     0.0000000000e+00
 1  1  3     0.0000000000e+00
 1  2  1     0.0000000000e+00
 1  2  2     0.0000000000e+00
 1  2  3     0.0000000000e+00
 1  3  1     0.0000000000e+00
 1  3  2     0.0000000000e+00
 1  3  3     0.0000000000e+00
 2  1  1     0.0000000000e+00
 2  1  2     0.0000000000e+00
 2  1  3     0.0000000000e+00
 2  2  1     0.0000000000e+00
 2  2  2     0.0000000000e+00
 2  2  3     0.0000000000e+00
 2  3  1     0.0000000000e+00
 2  3  2     0.0000000000e+00
 2  3  3     0.0000000000e+00
 3  1  1     0.0000000000e+00
 3  1  2     0.0000000000e+00
 3  1  3     0.0000000000e+00
 3  2  1     0.0000000000e+00
 3  2  2     0.0000000000e+00
 3  2  3     0.0000000000e+00
 3  3  1     0.0000000000e+00
 3  3  2     0.0000000000e+00
 3  3  3     0.0000000000e+00

    9
0.0000000000e+00 0.0000000000e+00 0.0000000000e+00
0.0000000000e+00 0.0000000000e+00 0.0000000000e+00
     1      5      1
 1  1  1    -2.2549649721e-02
 1  1  2     5.9839738089e-06
 1  1  3    -9.6257172397e-06
 1  2  1     6.3173998944e-05
 1  2  2     3.9325120828e-04
 1  2  3     8.6398429035e-02
 1  3  1    -6.0053114951e-05
 1  3  2     8.6401592362e-02
 1  3  3     3.8304745975e-04
 2  1  1     5.9839737994e-06
 2  1  2    -4.7002217924e-01
 2  1  3    -8.6781472302e-02
 2  2  1     3.9325120828e-04
 2  2  2     2.7821717829e+00
 2  2  3    -1.4008841608e+00
 2  3  1     8.6401592364e-02
 2  3  2    -9.7296921120e-01
 2  3  3     1.4008999051e+00
 3  1  1    -9.6257172397e-06
 3  1  2    -8.6781472298e-02
 3  1  3    -4.7004612029e-01
 3  2  1     8.6398429035e-02
 3  2  2    -1.4008841608e+00
 3  2  3     9.7297794826e-01
 3  3  1     3.8304745975e-04
 3  3  2     1.4008999051e+00
 3  3  3    -2.7822690438e+00

   10
0.0000000000e+00 0.0000000000e+00 0.0000000000e+00
0.0000000000e+00 0.0000000000e+00 0.0000000000e+00
     1      5      5
 1  1  1     1.0624317914e-03
 1  1  2    -4.2392375817e-02
 1  1  3     4.2393130253e-02
 1  2  1    -4.2392375812e-02
 1  2  2     2.7648534747e-04
 1  2  3    -3.6443056599e-04
 1  3  1     4.2393130417e-02
 1  3  2    -3.6443059486e-04
 1  3  3     2.8973675938e-04
 2  1  1     1.6956449415e-01
 2  1  2     2.1792162645e-01
 2  1  3    -1.8126979440e-01
 2  2  1     2.1792162645e-01
 2  2  2    -2.8879431526e+00
 2  2  3     1.1620384175e+00
 2  3  1    -1.8126979439e-01
 2  3  2     1.1620384175e+00
 2  3  3    -1.1812309833e+00
 3  1  1    -1.6956584945e-01
 3  1  2    -1.8127121947e-01
 3  1  3     2.1793834386e-01
 3  2  1    -1.8127121948e-01
 3  2  2     1.1812150294e+00
 3  2  3    -1.1620512096e+00
 3  3  1     2.1793834386e-01
 3  3  2    -1.1620512096e+00
 3  3  3     2.8880437354e+00

   11
0.0000000000e+00 0.0000000000e+00 0.0000000000e+00
0.0000000000e+00 0.0000000000e+00 0.0000000000e+00
     1      5      7
 1  1  1    -1.1778325620e-04
 1  1  2     1.1272754975e-05
 1  1  3    -1.1452269258e-05
 1  2  1     4.0409440668e-05
 1  2  2    -8.4024796385e-03
 1  2  3     8.6439920953e-03
 1  3  1    -4.1244344008e-05
 1  3  2     8.6434948682e-03
 1  3  3    -8.4040793387e-03
 2  1  1     5.8494928498e-05
 2  1  2    -2.4386141341e-02
 2  1  3    -1.0254050254e-06
 2  2  1    -1.2737347309e-01
 2  2  2     1.6008532684e-02
 2  2  3     3.6028996568e-02
 2  3  1     1.4382978133e-02
 2  3  2    -3.1195561740e-02
 2  3  3    -1.7477568570e-01
 3  1  1    -5.9512112171e-05
 3  1  2     4.3368086899e-15
 3  1  3    -2.4386577700e-02
 3  2  1     1.4384500759e-02
 3  2  2     1.7477376582e-01
 3  2  3     3.1195902793e-02
 3  3  1    -1.2737672140e-01
 3  3  2    -3.6030278812e-02
 3  3  3    -1.6010256828e-02

   12
0.0000000000e+00 0.0000000000e+00 0.0000000000e+00
0.0000000000e+00 0.0000000000e+00 0.0000000000e+00
     1      5      9
 1  1  1     8.0658951742e-06
 1  1  2    -1.4489418636e-05
 1  1  3     1.4594122103e-05
 1  2  1    -3.4181047587e-05
 1  2  2     4.8532303282e-02
 1  2  3    -4.8550503544e-02
 1  3  1     3.4200168366e-05
 1  3  2    -4.8550422528e-02
 1  3  3     4.8533491753e-02
 2  1  1    -3.3016826880e-05
 2  1  2     5.7463855618e-02
 2  1  3    -4.3315277997e-02
 2  2  1     6.6850622194e-03
 2  2  2     8.3299907029e-07
 2  2  3    -5.0265100992e-03
 2  3  1    -4.1410344938e-03
 2  3  2     5.9124052737e-03
 2  3  3     1.3188226536e-02
 3  1  1     3.3140672607e-05
 3  1  2    -4.3315338204e-02
 3  1  3     5.7465103641e-02
 3  2  1    -4.1411757133e-03
 3  2  2    -1.3188070366e-02
 3  2  3    -5.9124364767e-03
 3  3  1     6.6852501110e-03
 3  3  2     5.0259368859e-03
 3  3  3    -1.0842021725e-15

   13
0.0000000000e+00 0.0000000000e+00 0.0000000000e+00
1.3479161250e-02 6.0711416680e+00 1.3506153561e-02
     1      5      8
 1  1  1     1.4718993883e-02
 1  1  2     3.1803557415e-02
 1  1  3     6.5512063185e-03
 1  2  1     1.1706858702e-02
 1  2  2     3.7159362558e-02
 1  2  3    -1.3828959197e-02
 1  3  1    -1.2659792225e-02
 1  3  2     5.1329859364e-03
 1  3  3    -9.8657855591e-02
 2  1  1    -9.1961262418e-03
 2  1  2     2.1607735555e-01
 2  1  3     2.0056688837e-01
 2  2  1    -9.8887015016e-02
 2  2  2     0.0000000000e+00
 2  2  3     1.0477239288e-01
 2  3  1     1.2937672661e-01
 2  3  2    -1.8608629520e-01
 2  3  3    -6.8822856811e-03
 3  1  1     1.1280528198e-01
 3  1  2     9.1956154630e-02
 3  1  3    -4.6696452857e-03
 3  2  1     7.2602956182e-03
 3  2  2     3.4443423119e-02
 3  2  3     2.4442331702e-03
 3  3  1    -5.4141074273e-02
 3  3  2    -1.3602917744e-01
 3  3  3    -3.8116704951e-02

   14
0.0000000000e+00 0.0000000000e+00 0.0000000000e+00
1.3434176573e-02 -1.3505888462e-02 -6.0712097970e+00
     1      5      6
 1  1  1     1.4717951402e-02
 1  1  2    -6.5504071603e-03
 1  1  3    -3.1801215999e-02
 1  2  1     1.2659623600e-02
 1  2  2    -9.8655260310e-02
 1  2  3     5.1352255635e-03
 1  3  1    -1.1707386375e-02
 1  3  2    -1.3829887141e-02
 1  3  3     3.7159621469e-02
 2  1  1    -1.1280360677e-01
 2  1  2    -4.6701595819e-03
 2  1  3     9.1955836179e-02
 2  2  1    -5.4139310556e-02
 2  2  2     3.8114255551e-02
 2  2  3     1.3602796598e-01
 2  3  1     7.2591025791e-03
 2  3  2    -2.4442883839e-03
 2  3  3    -3.4442801761e-02
 3  1  1     9.1996438767e-03
 3  1  2     2.0056618372e-01
 3  1  3     2.1608342156e-01
 3  2  1     1.2937831495e-01
 3  2  2     6.8839179803e-03
 3  2  3     1.8609097850e-01
 3  3  1    -9.8890030482e-02
 3  3  2    -1.0477292091e-01
 3  3  3     1.1411403338e-06

   15
0.0000000000e+00 0.0000000000e+00 0.0000000000e+00
0.0000000000e+00 0.0000000000e+00 0.0000000000e+00
     1      7      1
 1  1  1    -3.0503363991e-03
 1  1  2     9.6530420974e-07
 1  1  3    -3.1721137128e-07
 1  2  1     9.2960161418e-06
 1  2  2     7.7748805049e-04
 1  2  3     1.1153931960e-02
 1  3  1    -7.8542612476e-06
 1  3  2     1.1153569056e-02
 1  3  3     7.7669799323e-04
 2  1  1     9.6530420750e-07
 2  1  2     9.0711796113e-02
 2  1  3    -1.1930621243e-02
 2  2  1     7.7748805049e-04
 2  2  2     1.7853962712e+00
 2  2  3    -1.6761947661e+00
 2  3  1     1.1153569056e-02
 2  3  2    -1.7252895431e+00
 2  3  3     1.6762135998e+00
 3  1  1    -3.1721137128e-07
 3  1  2    -1.1930621242e-02
 3  1  3     9.0713390385e-02
 3  2  1     1.1153931960e-02
 3  2  2    -1.6761947661e+00
 3  2  3     1.7253097640e+00
 3  3  1     7.7669799323e-04
 3  3  2     1.6762135998e+00
 3  3  3    -1.7854557720e+00

   16
0.0000000000e+00 0.0000000000e+00 0.0000000000e+00
0.0000000000e+00 0.0000000000e+00 0.0000000000e+00
     1      7      5
 1  1  1    -1.1778325620e-04
 1  1  2     4.0409440668e-05
 1  1  3    -4.1244344008e-05
 1  2  1     1.1272754975e-05
 1  2  2    -8.4024796385e-03
 1  2  3     8.6434948682e-03
 1  3  1    -1.1452269258e-05
 1  3  2     8.6439920953e-03
 1  3  3    -8.4040793387e-03
 2  1  1     5.8494928498e-05
 2  1  2    -1.2737347309e-01
 2  1  3     1.4382978133e-02
 2  2  1    -2.4386141341e-02
 2  2  2     1.6008532684e-02
 2  2  3    -3.1195561740e-02
 2  3  1    -1.0254050254e-06
 2  3  2     3.6028996568e-02
 2  3  3    -1.7477568570e-01
 3  1  1    -5.9512112171e-05
 3  1  2     1.4384500759e-02
 3  1  3    -1.2737672140e-01
 3  2  1     4.3368086899e-15
 3  2  2     1.7477376582e-01
 3  2  3    -3.6030278812e-02
 3  3  1    -2.4386577700e-02
 3  3  2     3.1195902793e-02
 3  3  3    -1.6010256828e-02

   17
0.0000000000e+00 0.0000000000e+00 0.0000000000e+00
0.0000000000e+00 0.0000000000e+00 0.0000000000e+00
     1      7      7
 1  1  1     2.1836131668e-04
 1  1  2    -4.0699582833e-03
 1  1  3     4.0706172400e-03
 1  2  1    -4.0699582813e-03
 1  2  2     2.1743534150e-04
 1  2  3    -5.2000403310e-04
 1  3  1     4.0706173379e-03
 1  3  2    -5.2000408270e-04
 1  3  3     2.2003848373e-04
 2  1  1     1.6274598635e-02
 2  1  2     6.2715237989e-02
 2  1  3     2.0326164387e-02
 2  2  1     6.2715237988e-02
 2  2  2    -1.8018690599e+00
 2  2  3     1.6849745493e+00
 2  3  1     2.0326164386e-02
 2  3  2     1.6849745493e+00
 2  3  3    -1.4586009232e+00
 3  1  1    -1.6273552004e-02
 3  1  2     2.0324340265e-02
 3  1  3     6.2717421853e-02
 3  2  1     2.0324340265e-02
 3  2  2     1.4585848371e+00
 3  2  3    -1.6849928723e+00
 3  3  1     6.2717421853e-02
 3  3  2    -1.6849928723e+00
 3  3  3     1.8019307275e+00

   18
0.0000000000e+00 0.0000000000e+00 0.0000000000e+00
6.0711660897e+00 1.3479049658e-02 -1.3434320867e-02
     1      7      9
 1  1  1    -1.5013731105e-05
 1  1  2    -6.9712066699e-06
 1  1  3     6.6470889239e-06
 1  2  1    -2.4246566685e-05
 1  2  2     2.8794565366e-02
 1  2  3    -2.8767144103e-02
 1  3  1     2.4009999769e-05
 1  3  2    -2.8767273150e-02
 1  3  3     2.8795033518e-02
 2  1  1    -1.9789232497e-05
 2  1  2    -7.0186972671e-03
 2  1  3    -3.6844902889e-02
 2  2  1    -2.3486262368e-02
 2  2  2    -4.6779151035e-03
 2  2  3     3.0183489757e-02
 2  3  1    -8.5608742132e-03
 2  3  2     1.2711487104e-02
 2  3  3    -2.8909300503e-02
 3  1  1     1.9228121855e-05
 3  1  2    -3.6844912220e-02
 3  1  3    -7.0189143906e-03
 3  2  1    -8.5607544974e-03
 3  2  2     2.8908852914e-02
 3  2  3    -1.2711957661e-02
 3  3  1    -2.3486978543e-02
 3  3  2    -3.0184487529e-02
 3  3  3     4.6780600093e-03

   19
0.0000000000e+00 0.0000000000e+00 0.0000000000e+00
0.0000000000e+00 0.0000000000e+00 0.0000000000e+00
     1      9      1
 1  1  1    -9.5844533540e-04
 1  1  2    -4.1873837442e-06
 1  1  3     4.1408652417e-06
 1  2  1     1.7470777330e-05
 1  2  2    -2.7390093288e-02
 1  2  3     3.1212838317e-02
 1  3  1    -1.7427960717e-05
 1  3  2     3.1212794402e-02
 1  3  3    -2.7390742625e-02
 2  1  1    -4.1873837442e-06
 2  1  2    -5.3400596843e-03
 2  1  3    -3.8224034188e-03
 2  2  1    -2.7390093288e-02
 2  2  2    -8.9001662811e-03
 2  2  3     1.3464962596e-02
 2  3  1     3.1212794402e-02
 2  3  2     7.5468867721e-03
 2  3  3    -1.3465113890e-02
 3  1  1     4.1408652417e-06
 3  1  2    -3.8224034186e-03
 3  1  3    -5.3401696597e-03
 3  2  1     3.1212838317e-02
 3  2  2     1.3464962596e-02
 3  2  3    -7.5465495473e-03
 3  3  1    -2.7390742625e-02
 3  3  2    -1.3465113890e-02
 3  3  3     8.9000218297e-03

   20
0.0000000000e+00 0.0000000000e+00 0.0000000000e+00
0.0000000000e+00 0.0000000000e+00 0.0000000000e+00
     1      9      5
 1  1  1     8.0658951742e-06
 1  1  2    -3.4181047587e-05
 1  1  3     3.4200168366e-05
 1  2  1    -1.4489418636e-05
 1  2  2     4.8532303282e-02
 1  2  3    -4.8550422528e-02
 1  3  1     1.4594122103e-05
 1  3  2    -4.8550503544e-02
 1  3  3     4.8533491753e-02
 2  1  1    -3.3016826880e-05
 2  1  2     6.6850622194e-03
 2  1  3    -4.1410344938e-03
 2  2  1     5.7463855618e-02
 2  2  2     8.3299907029e-07
 2  2  3     5.9124052737e-03
 2  3  1    -4.3315277997e-02
 2  3  2    -5.0265100992e-03
 2  3  3     1.3188226536e-02
 3  1  1     3.3140672607e-05
 3  1  2    -4.1411757133e-03
 3  1  3     6.6852501110e-03
 3  2  1    -4.3315338204e-02
 3  2  2    -1.3188070366e-02
 3  2  3     5.0259368859e-03
 3  3  1     5.7465103641e-02
 3  3  2    -5.9124364767e-03
 3  3  3    -1.0842021725e-15

   21
0.0000000000e+00 0.0000000000e+00 0.0000000000e+00
0.0000000000e+00 0.0000000000e+00 0.0000000000e+00
     1      9      9
 1  1  1     2.0039104107e-05
 1  1  2     4.5349506807e-03
 1  1  3    -4.5353031628e-03
 1  2  1     4.5349506796e-03
 1  2  2    -3.0640139723e-05
 1  2  3    -3.3644005135e-06
 1  3  1    -4.5353031622e-03
 1  3  2    -3.3644007634e-06
 1  3  3    -3.0469250859e-05
 2  1  1    -1.8140304577e-02
 2  1  2    -3.8427212402e-02
 2  1  3    -2.3432001678e-03
 2  2  1    -3.8427212402e-02
 2  2  2    -9.0066923757e-03
 2  2  3     1.0785843827e-02
 2  3  1    -2.3432001677e-03
 2  3  2     1.0785843828e-02
 2  3  3     2.3270340334e-02
 3  1  1     1.8139905698e-02
 3  1  2    -2.3432843269e-03
 3  1  3    -3.8427988702e-02
 3  2  1    -2.3432843269e-03
 3  2  2    -2.3270113662e-02
 3  2  3    -1.0786266506e-02
 3  3  1    -3.8427988702e-02
 3  3  2    -1.0786266506e-02
 3  3  3     9.0064276649e-03

   22
0.0000000000e+00 0.0000000000e+00 0.0000000000e+00
1.3479161250e-02 6.0711416680e+00 1.3506153561e-02
     1      9      8
 1  1  1    -6.6691648174e-03
 1  1  2     4.7592482342e-02
 1  1  3     5.0499519963e-02
 1  2  1    -1.0291838816e-02
 1  2  2    -1.3793606931e-02
 1  2  3    -1.0010741465e-02
 1  3  1     8.6955182534e-03
 1  3  2     1.3557358852e-02
 1  3  3     9.4698392860e-03
 2  1  1     2.5969704505e-03
 2  1  2     1.3673635246e-02
 2  1  3    -5.2034629651e-03
 2  2  1     2.4758587189e-03
 2  2  2    -7.4751837192e-03
 2  2  3    -4.9657484506e-02
 2  3  1     8.5508890589e-03
 2  3  2    -1.7581350874e-02
 2  3  3    -2.1717380703e-02
 3  1  1    -5.3865809890e-03
 3  1  2     2.5410348103e-02
 3  1  3     1.7735571796e-02
 3  2  1     4.0790545769e-03
 3  2  2    -2.4882380076e-03
 3  2  3    -2.4912606903e-03
 3  3  1     2.4508746721e-03
 3  3  2    -9.4194945168e-03
 3  3  3    -2.4497381553e-02

   23
0.0000000000e+00 0.0000000000e+00 0.0000000000e+00
1.3434176573e-02 -1.3505888462e-02 -6.0712097970e+00
     1      9      6
 1  1  1    -6.6698575928e-03
 1  1  2    -5.0498912993e-02
 1  1  3    -4.7592779409e-02
 1  2  1    -8.6952182816e-03
 1  2  2     9.4695305180e-03
 1  2  3     1.3557142428e-02
 1  3  1     1.0291777627e-02
 1  3  2    -1.0010653095e-02
 1  3  3    -1.3794119034e-02
 2  1  1     5.3868384125e-03
 2  1  2     1.7735039170e-02
 2  1  3     2.5410124149e-02
 2  2  1     2.4510458459e-03
 2  2  2     2.4496774801e-02
 2  2  3     9.4196948469e-03
 2  3  1     4.0792072921e-03
 2  3  2     2.4913198869e-03
 2  3  3     2.4883820078e-03
 3  1  1    -2.5969047796e-03
 3  1  2    -5.2033277766e-03
 3  1  3     1.3673756856e-02
 3  2  1     8.5510961232e-03
 3  2  2     2.1717231294e-02
 3  2  3     1.7581813023e-02
 3  3  1     2.4763936749e-03
 3  3  2     4.9657948439e-02
 3  3  3     7.4754533192e-03

   24
6.0711660897e+00 1.3479049658e-02 -1.3434320867e-02
0.0000000000e+00 0.0000000000e+00 0.0000000000e+00
     1      9      1
 1  1  1     3.1454950663e-03
 1  1  2    -9.0662151870e-06
 1  1  3     8.5769757751e-06
 1  2  1     1.6107499921e-05
 1  2  2    -4.7384890798e-02
 1  2  3     3.4992342106e-02
 1  3  1    -1.6281631026e-05
 1  3  2     3.4992215894e-02
 1  3  3    -4.7385393184e-02
 2  1  1    -9.0662151867e-06
 2  1  2    -6.9332888929e-02
 2  1  3     1.2392518740e-02
 2  2  1    -4.7384890798e-02
 2  2  2    -1.9501543531e-02
 2  2  3    -5.6589441375e-02
 2  3  1     3.4992215894e-02
 2  3  2    -7.3636850678e-02
 2  3  3     5.6590076992e-02
 3  1  1     8.5769757751e-06
 3  1  2     1.2392518740e-02
 3  1  3    -6.9333758509e-02
 3  2  1     3.4992342106e-02
 3  2  2    -5.6589441375e-02
 3  2  3     7.3637682732e-02
 3  3  1    -4.7385393184e-02
 3  3  2     5.6590076992e-02
 3  3  3     1.9500988322e-02

   25
6.0711660897e+00 1.3479049658e-02 -1.3434320867e-02
0.0000000000e+00 0.0000000000e+00 0.0000000000e+00
     1      9      7
 1  1  1    -1.5013731105e-05
 1  1  2    -2.4246566685e-05
 1  1  3     2.4009999769e-05
 1  2  1    -6.9712066699e-06
 1  2  2     2.8794565366e-02
 1  2  3    -2.8767273150e-02
 1  3  1     6.6470889239e-06
 1  3  2    -2.8767144103e-02
 1  3  3     2.8795033518e-02
 2  1  1    -1.9789232497e-05
 2  1  2    -2.3486262368e-02
 2  1  3    -8.5608742132e-03
 2  2  1    -7.0186972671e-03
 2  2  2    -4.6779151035e-03
 2  2  3     1.2711487104e-02
 2  3  1    -3.6844902889e-02
 2  3  2     3.0183489757e-02
 2  3  3    -2.8909300503e-02
 3  1  1     1.9228121855e-05
 3  1  2    -8.5607544974e-03
 3  1  3    -2.3486978543e-02
 3  2  1    -3.6844912220e-02
 3  2  2     2.8908852914e-02
 3  2  3    -3.0184487529e-02
 3  3  1    -7.0189143906e-03
 3  3  2    -1.2711957661e-02
 3  3  3     4.6780600093e-03

   26
6.0711660897e+00 1.3479049658e-02 -1.3434320867e-02
6.0711660897e+00 1.3479049658e-02 -1.3434320867e-02
     1      9      9
 1  1  1    -2.3760929299e-05
 1  1  2     5.2537233421e-03
 1  1  3    -5.2531985216e-03
 1  2  1     5.2537233445e-03
 1  2  2     7.8585342696e-06
 1  2  3    -1.2941912945e-05
 1  3  1    -5.2531985219e-03
 1  3  2    -1.2941914107e-05
 1  3  3     7.4965623397e-06
 2  1  1    -2.1013851227e-02
 2  1  2     8.2567618909e-02
 2  1  3    -3.5675849284e-03
 2  2  1     8.2567618909e-02
 2  2  2     7.6317264822e-03
 2  2  3     4.3272667621e-02
 2  3  1    -3.5675849282e-03
 2  3  2     4.3272667619e-02
 2  3  3    -3.0847072928e-02
 3  1  1     2.1015255290e-02
 3  1  2    -3.5674826117e-03
 3  1  3     8.2569214889e-02
 3  2  1    -3.5674826118e-03
 3  2  2     3.0846673795e-02
 3  2  3    -4.3272569832e-02
 3  3  1     8.2569214889e-02
 3  3  2    -4.3272569832e-02
 3  3  3    -7.6307632318e-03

   27
1.3479161250e-02 6.0711416680e+00 1.3506153561e-02
0.0000000000e+00 0.0000000000e+00 0.0000000000e+00
     1      8      1
 1  1  1     9.3587706822e-03
 1  1  2    -2.8698010378e+00
 1  1  3    -2.8573072508e+00
 1  2  1    -2.9420846490e+00
 1  2  2    -2.4833654549e-02
 1  2  3    -5.6010739730e-02
 1  3  1    -2.9522400959e+00
 1  3  2    -3.5428854957e-02
 1  3  3     8.6381031536e-02
 2  1  1    -2.8698010378e+00
 2  1  2     2.9759626447e-01
 2  1  3     3.4916669575e-02
 2  2  1    -2.4833654549e-02
 2  2  2    -1.9671991960e+00
 2  2  3    -1.6413253383e+00
 2  3  1    -3.5428854957e-02
 2  3  2    -1.8646269783e+00
 2  3  3    -4.7523252840e+00
 3  1  1    -2.8573072508e+00
 3  1  2     3.4916669575e-02
 3  1  3     1.3919467721e-01
 3  2  1    -5.6010739730e-02
 3  2  2    -1.6413253383e+00
 3  2  3    -4.5962626768e+00
 3  3  1     8.6381031536e-02
 3  3  2    -4.7523252840e+00
 3  3  3    -2.2282714679e+00

   28
1.3479161250e-02 6.0711416680e+00 1.3506153561e-02
0.0000000000e+00 0.0000000000e+00 0.0000000000e+00
     1      8      5
 1  1  1     1.4718993883e-02
 1  1  2     1.1706858702e-02
 1  1  3    -1.2659792225e-02
 1  2  1     3.1803557415e-02
 1  2  2     3.7159362558e-02
 1  2  3     5.1329859364e-03
 1  3  1     6.5512063185e-03
 1  3  2    -1.3828959197e-02
 1  3  3    -9.8657855591e-02
 2  1  1    -9.1961262418e-03
 2  1  2    -9.8887015016e-02
 2  1  3     1.2937672661e-01
 2  2  1     2.1607735555e-01
 2  2  2     0.0000000000e+00
 2  2  3    -1.8608629520e-01
 2  3  1     2.0056688837e-01
 2  3  2     1.0477239288e-01
 2  3  3    -6.8822856811e-03
 3  1  1     1.1280528198e-01
 3  1  2     7.2602956182e-03
 3  1  3    -5.4141074273e-02
 3  2  1     9.1956154630e-02
 3  2  2     3.4443423119e-02
 3  2  3    -1.3602917744e-01
 3  3  1    -4.6696452857e-03
 3  3  2     2.4442331702e-03
 3  3  3    -3.8116704951e-02

   29
1.3479161250e-02 6.0711416680e+00 1.3506153561e-02
0.0000000000e+00 0.0000000000e+00 0.0000000000e+00
     1      8      9
 1  1  1    -6.6691648174e-03
 1  1  2    -1.0291838816e-02
 1  1  3     8.6955182534e-03
 1  2  1     4.7592482342e-02
 1  2  2    -1.3793606931e-02
 1  2  3     1.3557358852e-02
 1  3  1     5.0499519963e-02
 1  3  2    -1.0010741465e-02
 1  3  3     9.4698392860e-03
 2  1  1     2.5969704505e-03
 2  1  2     2.4758587189e-03
 2  1  3     8.5508890589e-03
 2  2  1     1.3673635246e-02
 2  2  2    -7.4751837192e-03
 2  2  3    -1.7581350874e-02
 2  3  1    -5.2034629651e-03
 2  3  2    -4.9657484506e-02
 2  3  3    -2.1717380703e-02
 3  1  1    -5.3865809890e-03
 3  1  2     4.0790545769e-03
 3  1  3     2.4508746721e-03
 3  2  1     2.5410348103e-02
 3  2  2    -2.4882380076e-03
 3  2  3    -9.4194945168e-03
 3  3  1     1.7735571796e-02
 3  3  2    -2.4912606903e-03
 3  3  3    -2.4497381553e-02

   30
1.3479161250e-02 6.0711416680e+00 1.3506153561e-02
1.3479161250e-02 6.0711416680e+00 1.3506153561e-02
     1      8      8
 1  1  1    -2.7294168164e-02
 1  1  2     2.8805897049e+00
 1  1  3     2.8726941111e+00
 1  2  1     2.8805897049e+00
 1  2  2     2.1123025948e-02
 1  2  3     6.5422437955e-02
 1  3  1     2.8726941111e+00
 1  3  2     6.5422437955e-02
 1  3  3     1.2234342037e-02
 2  1  1     2.8461044323e+00
 2  1  2    -2.1051804975e-01
 2  1  3    -1.7565126312e-01
 2  2  1    -2.1051804975e-01
 2  2  2     1.9780209115e+00
 2  2  3     1.8436729334e+00
 2  3  1    -1.7565126312e-01
 2  3  2     1.8436729334e+00
 2  3  3     4.7835251352e+00
 3  1  1     2.7402099438e+00
 3  1  2    -7.9949418592e-02
 3  1  3    -6.3782023668e-02
 3  2  1    -7.9949418592e-02
 3  2  2     1.5904345865e+00
 3  2  3     4.7434082023e+00
 3  3  1    -6.3782023668e-02
 3  3  2     4.7434082023e+00
 3  3  3     2.3466584883e+00

   31
1.3434176573e-02 -1.3505888462e-02 -6.0712097970e+00
0.0000000000e+00 0.0000000000e+00 0.0000000000e+00
     1      6      1
 1  1  1     9.4870302544e-03
 1  1  2     2.8572767164e+00
 1  1  3     2.8698353793e+00
 1  2  1     2.9522077362e+00
 1  2  2     8.6473642776e-02
 1  2  3    -3.5336896624e-02
 1  3  1     2.9421165948e+00
 1  3  2    -5.5921753520e-02
 1  3  3    -2.4764570087e-02
 2  1  1     2.8572767164e+00
 2  1  2     1.3928424552e-01
 2  1  3     3.5006274617e-02
 2  2  1     8.6473642776e-02
 2  2  2     2.2281986195e+00
 2  2  3     4.7522725101e+00
 2  3  1    -5.5921753520e-02
 2  3  2     4.5962112233e+00
 2  3  3     1.6413434620e+00
 3  1  1     2.8698353793e+00
 3  1  2     3.5006274617e-02
 3  1  3     2.9767371296e-01
 3  2  1    -3.5336896624e-02
 3  2  2     4.7522725101e+00
 3  2  3     1.8646496276e+00
 3  3  1    -2.4764570087e-02
 3  3  2     1.6413434620e+00
 3  3  3     1.9672673651e+00

   32
1.3434176573e-02 -1.3505888462e-02 -6.0712097970e+00
0.0000000000e+00 0.0000000000e+00 0.0000000000e+00
     1      6      5
 1  1  1     1.4717951402e-02
 1  1  2     1.2659623600e-02
 1  1  3    -1.1707386375e-02
 1  2  1    -6.5504071603e-03
 1  2  2    -9.8655260310e-02
 1  2  3    -1.3829887141e-02
 1  3  1    -3.1801215999e-02
 1  3  2     5.1352255635e-03
 1  3  3     3.7159621469e-02
 2  1  1    -1.1280360677e-01
 2  1  2    -5.4139310556e-02
 2  1  3     7.2591025791e-03
 2  2  1    -4.6701595819e-03
 2  2  2     3.8114255551e-02
 2  2  3    -2.4442883839e-03
 2  3  1     9.1955836179e-02
 2  3  2     1.3602796598e-01
 2  3  3    -3.4442801761e-02
 3  1  1     9.1996438767e-03
 3  1  2     1.2937831495e-01
 3  1  3    -9.8890030482e-02
 3  2  1     2.0056618372e-01
 3  2  2     6.8839179803e-03